# vtk DataFile Version 3.0
Mesh from Gmsh, time = 10
ASCII
DATASET UNSTRUCTURED_GRID
POINTS 2333 double
-3 -2 0
8 -2 0
8 2 0
-3 2 0
1 0 0
0 0 0
-2.8 -2 0
-2.6 -2 0
-2.4 -2 0
-2.2 -2 0
-2 -2 0
-1.8 -2 0
-1.6 -2 0
-1.4 -2 0
-1.2 -2 0
-1 -2 0
-0.8 -2 0
-0.6 -2 0
-0.4 -2 0
-0.2 -2 0
-8.70104e-12 -2 0
0.2 -2 0
0.4 -2 0
0.6 -2 0
0.8 -2 0
1 -2 0
1.2 -2 0
1.4 -2 0
1.6 -2 0
1.8 -2 0
2 -2 0
2.2 -2 0
2.4 -2 0
2.6 -2 0
2.8 -2 0
3 -2 0
3.2 -2 0
3.4 -2 0
3.6 -2 0
3.8 -2 0
4 -2 0
4.2 -2 0
4.4 -2 0
4.6 -2 0
4.8 -2 0
5 -2 0
5.2 -2 0
5.4 -2 0
5.6 -2 0
5.8 -2 0
6 -2 0
6.2 -2 0
6.4 -2 0
6.6 -2 0
6.8 -2 0
7 -2 0
7.2 -2 0
7.4 -2 0
7.6 -2 0
7.8 -2 0
8 -1.8 0
8 -1.6 0
8 -1.4 0
8 -1.2 0
8 -1 0
8 -0.8 0
8 -0.6 0
8 -0.4 0
8 -0.2 0
8 -5.50449e-12 0
8 0.2 0
8 0.4 0
8 0.6 0
8 0.8 0
8 1 0
8 1.2 0
8 1.4 0
8 1.6 0
8 1.8 0
7.8 2 0
7.6 2 0
7.4 2 0
7.2 2 0
7 2 0
6.8 2 0
6.6 2 0
6.4 2 0
6.2 2 0
6 2 0
5.8 2 0
5.6 2 0
5.4 2 0
5.2 2 0
5 2 0
4.8 2 0
4.6 2 0
4.4 2 0
4.2 2 0
4 2 0
3.8 2 0
3.6 2 0
3.4 2 0
3.2 2 0
3 2 0
2.8 2 0
2.6 2 0
2.4 2 0
2.2 2 0
2 2 0
1.8 2 0
1.6 2 0
1.4 2 0
1.2 2 0
1 2 0
0.8 2 0
0.6 2 0
0.4 2 0
0.2 2 0
1.21032e-11 2 0
-0.2 2 0
-0.4 2 0
-0.6 2 0
-0.8 2 0
-1 2 0
-1.2 2 0
-1.4 2 0
-1.6 2 0
-1.8 2 0
-2 2 0
-2.2 2 0
-2.4 2 0
-2.6 2 0
-2.8 2 0
-3 1.8 0
-3 1.6 0
-3 1.4 0
-3 1.2 0
-3 1 0
-3 0.8 0
-3 0.6 0
-3 0.4 0
-3 0.2 0
-3 5.50449e-12 0
-3 -0.2 0
-3 -0.4 0
-3 -0.6 0
-3 -0.8 0
-3 -1 0
-3 -1.2 0
-3 -1.4 0
-3 -1.6 0
-3 -1.8 0
0.990431 0.00268237 0
0.980519 0.00398673 0
0.97061 0.00530823 0
0.960702 0.00664451 0
0.950792 0.00796356 0
0.94088 0.00926112 0
0.930966 0.0105495 0
0.92105 0.0118255 0
0.911132 0.0130846 0
0.901212 0.0143244 0
0.891291 0.0155533 0
0.881368 0.0167716 0
0.871444 0.0179766 0
0.861517 0.0191659 0
0.851589 0.0203378 0
0.841659 0.0214979 0
0.831728 0.0226478 0
0.821796 0.0237858 0
0.811862 0.0249104 0
0.801926 0.02602 0
0.791989 0.0271134 0
0.78205 0.028195 0
0.772111 0.0292664 0
0.76217 0.0303261 0
0.752227 0.0313729 0
0.742284 0.0324055 0
0.732338 0.0334228 0
0.722391 0.0344242 0
0.712443 0.0354147 0
0.702494 0.0363939 0
0.692543 0.0373608 0
0.682592 0.0383139 0
0.672638 0.0392519 0
0.662684 0.0401737 0
0.652727 0.0410779 0
0.64277 0.0419686 0
0.632811 0.0428473 0
0.622851 0.0437125 0
0.61289 0.0445626 0
0.602928 0.0453964 0
0.592964 0.0462122 0
0.582998 0.0470084 0
0.573031 0.0477848 0
0.563063 0.0485465 0
0.553094 0.049293 0
0.543123 0.0500227 0
0.533151 0.0507339 0
0.523177 0.0514246 0
0.513203 0.0520932 0
0.503226 0.0527375 0
0.493248 0.0533578 0
0.483269 0.0539595 0
0.473288 0.0545413 0
0.463307 0.0551013 0
0.453324 0.0556374 0
0.44334 0.0561474 0
0.433354 0.056629 0
0.423367 0.0570797 0
0.413378 0.0575005 0
0.403389 0.057896 0
0.393398 0.0582643 0
0.383407 0.0586032 0
0.373414 0.0589101 0
0.363421 0.0591825 0
0.353426 0.0594173 0
0.343431 0.0596114 0
0.333435 0.0597685 0
0.323438 0.0598893 0
0.313441 0.0599716 0
0.303444 0.0600125 0
0.293447 0.0600089 0
0.283449 0.0599575 0
0.273453 0.059854 0
0.263457 0.0596981 0
0.253461 0.0594911 0
0.243468 0.0592303 0
0.233475 0.0589123 0
0.223485 0.0585334 0
0.213498 0.0580888 0
0.203514 0.0575731 0
0.193534 0.0569838 0
0.183559 0.0563183 0
0.173589 0.0555725 0
0.163627 0.054741 0
0.153672 0.0538171 0
0.143728 0.0527923 0
0.133795 0.0516567 0
0.123877 0.0504027 0
0.113976 0.0490214 0
0.104095 0.0475012 0
0.0942387 0.0458265 0
0.084415 0.0439722 0
0.0746318 0.041915 0
0.0648997 0.0396286 0
0.0552345 0.0370749 0
0.0456627 0.0341914 0
0.0362253 0.0308956 0
0.0269894 0.0270737 0
0.0180916 0.0225244 0
0.00983714 0.0169031 0
0.00335409 0.00940769 0
0.00335409 -0.00940769 0
0.00983714 -0.0169031 0
0.0180916 -0.0225244 0
0.0269894 -0.0270737 0
0.0362253 -0.0308956 0
0.0456627 -0.0341914 0
0.0552345 -0.0370749 0
0.0648997 -0.0396286 0
0.0746318 -0.041915 0
0.084415 -0.0439722 0
0.0942387 -0.0458265 0
0.104095 -0.0475012 0
0.113976 -0.0490214 0
0.123877 -0.0504027 0
0.133795 -0.0516567 0
0.143728 -0.0527923 0
0.153672 -0.0538171 0
0.163627 -0.054741 0
0.173589 -0.0555725 0
0.183559 -0.0563183 0
0.193534 -0.0569838 0
0.203514 -0.0575731 0
0.213498 -0.0580888 0
0.223485 -0.0585334 0
0.233475 -0.0589123 0
0.243468 -0.0592303 0
0.253461 -0.0594911 0
0.263457 -0.0596981 0
0.273453 -0.059854 0
0.283449 -0.0599575 0
0.293447 -0.0600089 0
0.303444 -0.0600125 0
0.313441 -0.0599716 0
0.323438 -0.0598893 0
0.333435 -0.0597685 0
0.343431 -0.0596114 0
0.353426 -0.0594173 0
0.363421 -0.0591825 0
0.373414 -0.0589101 0
0.383407 -0.0586032 0
0.393398 -0.0582643 0
0.403389 -0.057896 0
0.413378 -0.0575005 0
0.423367 -0.0570797 0
0.433354 -0.056629 0
0.44334 -0.0561474 0
0.453324 -0.0556374 0
0.463307 -0.0551013 0
0.473288 -0.0545413 0
0.483269 -0.0539595 0
0.493248 -0.0533578 0
0.503226 -0.0527375 0
0.513203 -0.0520932 0
0.523177 -0.0514246 0
0.533151 -0.0507339 0
0.543123 -0.0500227 0
0.553094 -0.049293 0
0.563063 -0.0485465 0
0.573031 -0.0477848 0
0.582998 -0.0470084 0
0.592964 -0.0462122 0
0.602928 -0.0453964 0
0.61289 -0.0445626 0
0.622851 -0.0437125 0
0.632811 -0.0428473 0
0.64277 -0.0419686 0
0.652727 -0.0410779 0
0.662684 -0.0401737 0
0.672638 -0.0392519 0
0.682592 -0.0383139 0
0.692543 -0.0373608 0
0.702494 -0.0363939 0
0.712443 -0.0354147 0
0.722391 -0.0344242 0
0.732338 -0.0334228 0
0.742284 -0.0324055 0
0.752227 -0.0313729 0
0.76217 -0.0303261 0
0.772111 -0.0292664 0
0.78205 -0.028195 0
0.791989 -0.0271134 0
0.801926 -0.02602 0
0.811862 -0.0249104 0
0.821796 -0.0237858 0
0.831728 -0.0226478 0
0.841659 -0.0214979 0
0.851589 -0.0203378 0
0.861517 -0.0191659 0
0.871444 -0.0179766 0
0.881368 -0.0167716 0
0.891291 -0.0155533 0
0.901212 -0.0143244 0
0.911132 -0.0130846 0
0.92105 -0.0118255 0
0.930966 -0.0105495 0
0.94088 -0.00926112 0
0.950792 -0.00796356 0
0.960702 -0.00664451 0
0.97061 -0.00530823 0
0.980519 -0.00398673 0
0.990431 -0.00268237 0
0.811966 -0.034096 0
0.960971 -0.0154558 0
0.0517875 -0.0467679 0
0.960546 0.0156711 0
0.643191 -0.0515914 0
0.791494 0.0375469 0
0.152245 -0.0632053 0
0.613145 0.0538725 0
0.492832 -0.0627512 0
0.452285 0.0650304 0
0.174841 0.0643121 0
0.262076 -0.0690847 0
0.332425 0.0692057 0
0.0782501 0.0526165 0
-2.8 0.4 0
4 1.8 0
5 1.8 0
5.8 1.8 0
3 1.8 0
5.4 -1.8 0
3.8 -1.8 0
1.8 -1.8 0
2.8 -1.8 0
1.4 1.8 0
-1.2 1.8 0
-1 -1.8 0
-0.6 1.8 0
1.2 -1.8 0
-0.2 -1.8 0
0.6 1.8 0
0.6 -1.8 0
7.8 -0.2 0
-2.8 -0.6 0
6.6 -1.8 0
0.382978 -0.0679085 0
-2 1.8 0
0.723394 -0.0443711 0
0.715027 0.0451639 0
0.880445 0.0267224 0
7.8 0.6 0
6.4 1.8 0
7 1.8 0
7.8 -1.2 0
-1.6 -1.8 0
0.890994 -0.0239185 0
0.542094 0.0591282 0
0.242496 0.0679858 0
0.572208 -0.057205 0
-2.8 1.4 0
7.8 1.2 0
0.334566 -0.0698998 0
0.403192 0.0674593 0
0.444098 -0.0693217 0
0.212588 -0.0675877 0
0.499462 0.0648001 0
0.113422 -0.0583504 0
0.673125 0.0481439 0
-2.8 -1.2 0
-2.4 -1.8 0
7.4 1.8 0
2 1.8 0
4.8 -1.8 0
7.4 -1.8 0
0.284487 0.0691834 0
0.839777 0.0325012 0
0.77075 -0.0419995 0
0.115076 0.0604604 0
-0.2 1.8 0
4.4 -1.8 0
3.4 -1.8 0
6.2 -1.8 0
-2.8 5.00304e-12 0
4.4 1.8 0
3.4 1.8 0
-2.8 -1.8 0
-2.6 1.8 0
7.8 1.6 0
7.8 -1.8 0
-2.8 1.8 0
7.6 1.8 0
2.2 1.8 0
2.4 1.8 0
2.6 -1.8 0
0.2 1.8 0
1 1.8 0
1.6 1.8 0
-2.4 1.8 0
-1 1.8 0
-1.6 1.8 0
6 -1.8 0
7 -1.8 0
3.2 -1.8 0
5.8 -1.8 0
4.2 -1.8 0
5.2 -1.8 0
7.8 0.2 0
-2.8 -1.4 0
7.8 0.8 0
-2.8 -0.8 0
-2 -1.8 0
-2.8 -0.2 0
2.4 -1.8 0
7.8 -0.6 0
-2.8 0.8 0
7.8 -1 0
-2.8 1.2 0
-0.6 -1.8 0
-1.2 -1.8 0
3.6 1.8 0
6.6 1.8 0
5.4 1.8 0
6 1.8 0
2.6 1.8 0
4.6 1.8 0
2.2 -1.8 0
0.2 -1.8 0
1.6 -1.8 0
1 -1.8 0
7.8 1.8 0
7.8 -1.6 0
-2.6 4.95532e-12 0
4.4 -1.6 0
5.8 -1.6 0
3.4 -1.6 0
6 1.6 0
4.4 1.6 0
3.4 1.6 0
1.8 -1.6 0
2.6 1.6 0
1.4 1.6 0
-1.2 1.6 0
-1 -1.6 0
1.2 -1.6 0
7.6 0.6 0
-2.6 -0.6 0
7.6 -1.2 0
2.4 -1.6 0
-2.6 -1.4 0
5.4 -1.6 0
2.2 1.6 0
-2.6 1.4 0
6.4 1.6 0
7.6 -1.6 0
3 -1.8 0
-2.8 -1.6 0
1.8 1.8 0
0.4 1.8 0
-0.4 1.8 0
-1.8 1.8 0
1.2 1.8 0
1.25072e-11 1.8 0
-0.8 1.8 0
0.8 1.8 0
-1.4 1.8 0
-2.2 1.8 0
4 -1.8 0
3.6 -1.8 0
4.6 -1.8 0
5.6 -1.8 0
6.4 -1.8 0
6.8 -1.8 0
5 -1.8 0
7.2 -1.8 0
7.8 1 0
-2.8 -1 0
7.8 1.4 0
6 -1.6 0
2.6 -1.6 0
7.8 0.4 0
-2.8 -0.4 0
7.8 -5.11206e-12 0
7.6 -1.8 0
-2.8 0.2 0
-1.8 -1.8 0
-2.2 -1.8 0
-1.4 -1.8 0
7.8 -0.4 0
7.8 -0.8 0
-2.8 0.6 0
-2.8 1 0
7.8 -1.4 0
-2.8 1.6 0
-2.6 -1.8 0
-0.8 -1.8 0
4.2 1.8 0
5.6 1.8 0
5.2 1.8 0
3.2 1.8 0
3.8 1.8 0
7.2 1.8 0
6.8 1.8 0
2.8 1.8 0
6.2 1.8 0
4.8 1.8 0
2 -1.8 0
-8.25499e-12 -1.8 0
0.8 -1.8 0
-0.4 -1.8 0
0.4 -1.8 0
1.4 -1.8 0
7.4 1.6 0
7.6 1.6 0
-2.4 1.6 0
5.8 -1.4 0
-0.4 1.6 0
-0.2 -1.6 0
0.8 1.6 0
0.6 -1.6 0
2.4 -1.4 0
7.6 -0.6 0
-2.6 0.8 0
-1.6 -1.6 0
6.8 -1.6 0
5.4 1.6 0
7.6 1 0
1.29107e-11 1.6 0
-2.6 -0.4 0
4 -1.6 0
5 -1.6 0
7.6 -0.2 0
7.6 -1 0
-2.6 1.2 0
-1.8 1.6 0
-2.2 1.6 0
5 1.6 0
5.8 1.6 0
1.4 -1.6 0
-2 -1.6 0
4 1.6 0
7 1.6 0
1 -1.6 0
2 -1.6 0
7.2 -1.6 0
-2.4 -1.6 0
5.6 -1.6 0
7.4 -1.6 0
1.2 1.6 0
-1.4 1.6 0
3.6 -1.6 0
4.6 -1.6 0
2.4 1.6 0
7.6 0.4 0
-2.6 -0.2 0
3 -1.6 0
2.8 -1.6 0
4.2 -1.6 0
5.2 -1.6 0
1.8 1.6 0
2 1.6 0
0.4 1.6 0
-0.8 1.6 0
7.6 0.8 0
6.4 -1.6 0
6.2 -1.6 0
-2.6 -1 0
-2.6 -0.8 0
7.6 1.4 0
7.6 -5.00467e-12 0
3.2 -1.6 0
-2.6 -1.2 0
-1 1.6 0
1.6 1.6 0
0.2 -1.6 0
-2.6 0.2 0
-1.2 -1.6 0
3.6 1.6 0
6.6 1.6 0
4.6 1.6 0
-2.6 0.4 0
-2.6 -1.6 0
2.8 1.6 0
3.2 1.6 0
-0.6 -1.6 0
-0.8 -1.6 0
1.6 -1.6 0
4.2 1.6 0
7.2 1.6 0
-2.6 1.6 0
6.2 1.6 0
7.6 -1.4 0
2.2 -1.6 0
-2.4 0.2 0
4.6 -1.4 0
3.6 -1.4 0
2.6 1.4 0
4.4 1.4 0
3.4 1.4 0
6 1.4 0
1.8 -1.4 0
1.2 1.4 0
1.8 1.4 0
-0.8 1.4 0
-1 -1.4 0
1.2 -1.4 0
7.4 -0.2 0
-2.4 -0.4 0
7.4 0.4 0
7.4 1 0
-2.4 -1 0
-2.4 -1.4 0
7 1.4 0
4 -1.4 0
5.4 -1.4 0
2.8 -1.4 0
7.4 -1 0
7.2 -1.4 0
6.4 1.4 0
5.6 -1.4 0
-0.2 1.6 0
7 -1.6 0
-2 1.6 0
-2.2 1.4 0
-2.4 1.4 0
2.4 1.4 0
2.6 -1.4 0
7.6 0.2 0
-1.6 1.6 0
0.6 1.6 0
-0.6 1.6 0
1 1.6 0
5 -1.4 0
6.6 -1.6 0
4.8 -1.6 0
3.4 -1.4 0
2.2 1.4 0
-2.2 -1.6 0
3.8 1.6 0
6.8 1.6 0
3 -1.4 0
0.2 1.6 0
-2.4 4.97034e-12 0
-1.2 1.4 0
7.4 0.6 0
-2.4 -0.6 0
0.4 -1.6 0
-2.6 0.6 0
3.8 -1.6 0
7.6 1.2 0
1.4 1.4 0
4.4 -1.4 0
7.4 -1.2 0
6 -1.4 0
6.4 -1.4 0
4.8 1.6 0
-1.4 -1.6 0
-1.8 -1.6 0
7.6 -0.4 0
7.6 -0.8 0
-2.6 1 0
5.2 1.6 0
-8.25498e-12 -1.6 0
-0.6 -1.4 0
7.4 1.4 0
5.6 1.6 0
1.6 -1.4 0
0.8 -1.6 0
2.2 -1.4 0
-0.4 -1.6 0
7.4 -1.4 0
4 1.4 0
3 1.6 0
-2.2 0.2 0
[...]
CELL_DATA 4312
SCALARS density double 1
LOOKUP_TABLE default
0.586652
0.520668
0.526935
0.455879
0.511931
0.514834
0.504216
0.581254
0.533006
0.549639
0.475669
0.545558
0.521441
0.589933
0.588064
0.528231
0.573743
0.574563
0.580888
0.593495
0.490417
0.533556
0.553705
0.548682
0.565091
0.495554
0.522555
0.473429
0.468731
0.570699
0.545129
0.539891
0.597795
0.51612
0.560953
0.489859
0.508107
0.587092
0.515946
0.558963
0.517549
0.544895
0.501655
0.521866
0.523842
0.519398
0.506983
0.507471
0.488529
0.483632
0.601108
0.580809
0.459242
0.504997
0.474458
0.570839
0.565558
0.593691
0.504514
0.523442
0.591965
0.589432
0.494552
0.597668
0.498848
0.477453
0.523921
0.575035
0.483764
0.510755
0.560642
0.597635
0.590105
0.591056
0.467945
0.586498
0.586611
0.508393
0.533252
0.567767
0.465996
0.475611
0.531446
0.620577
0.484602
0.568859
0.549049
0.504813
0.588614
0.540871
0.568604
0.591741
0.588382
0.513651
0.585317
0.544167
0.520462
0.533411
0.517585
0.488229
0.540911
0.459125
0.504849
0.590108
0.457399
0.582873
0.501821
0.498175
0.521026
0.593041
0.475649
0.583299
0.537459
0.50372
0.47949
0.483007
0.511832
0.526709
0.510619
0.576011
0.573188
0.544034
0.590534
0.586637
0.594386
0.509758
0.553678
0.588752
0.57225
0.592834
0.516888
0.530666
0.468552
0.468746
0.475972
0.477716
0.468407
0.468563
0.556632
0.59198
0.505911
0.518849
0.594531
0.512373
0.586259
0.509532
0.520521
0.525005
0.590563
0.584998
0.577572
0.527459
0.587035
0.589735
0.505175
0.55805
0.484295
0.502997
0.58665
0.565418
0.528936
0.570446
0.479152
0.600256
0.546172
0.501921
0.526894
0.591896
0.527801
0.545281
0.535487
0.529943
0.523651
0.517367
0.532627
0.5919
0.488779
0.479713
0.515235
0.54867
0.570619
0.465932
0.521093
0.470948
0.499097
0.548042
0.519929
0.464178
0.590366
0.552652
0.581785
0.463428
0.520216
0.519606
0.591595
0.513114
0.582393
0.579557
0.539815
0.516874
0.519802
0.550012
0.532636
0.606232
0.51217
0.516245
0.563466
0.5187
0.505832
0.524988
0.496403
0.569111
0.526001
0.586137
0.592698
0.559354
0.520577
0.502145
0.597471
0.57887
0.510185
0.564215
0.500888
0.574868
0.539419
0.595494
0.651084
0.65208
0.525553
0.592484
0.573602
0.565633
0.513226
0.491265
0.568631
0.62558
0.647549
0.64858
0.518058
0.531355
0.471055
0.516552
0.477895
0.576228
0.510979
0.568447
0.582829
0.549969
0.565038
0.518678
0.571487
0.600304
0.524534
0.531238
0.561711
0.517474
0.51719
0.552797
0.548468
0.586939
0.637174
0.634513
0.526634
0.549753
0.679237
0.67932
0.572535
0.540552
0.588886
0.515811
0.522239
0.486854
0.556098
0.535433
0.604212
0.575931
0.564237
0.493516
0.503202
0.538698
0.628635
0.531657
0.513485
0.498092
0.496823
0.587232
0.588351
0.516001
0.588681
0.578609
0.52479
0.563607
0.481551
0.552021
0.597573
0.594347
0.535589
0.52779
0.509109
0.518248
0.591599
0.588143
0.516861
0.510215
0.540381
0.559234
0.517803
0.563713
0.597404
0.585456
0.552442
0.55536
0.584628
0.59941
0.511632
0.506164
0.518036
0.502882
0.57854
0.551607
0.59376
0.463103
0.526159
0.579071
0.520841
0.555023
0.520629
0.54387
0.568981
0.524566
0.494058
0.601039
0.527656
0.559138
0.595211
0.505973
0.565135
0.488216
0.547539
0.531565
0.596982
0.510598
0.57916
0.478304
0.497378
0.556881
0.556473
0.50884
0.598623
0.579796
0.499221
0.518518
0.567307
0.560401
0.539538
0.519527
0.539894
0.519348
0.542882
0.594841
0.573239
0.585913
0.580983
0.590771
0.604608
0.581707
0.503429
0.614546
0.616743
0.520435
0.529153
0.550138
0.476023
0.549892
0.495167
0.53581
0.553922
0.514587
0.496946
0.589753
0.564935
0.593021
0.54757
0.534559
0.496645
0.530049
0.481002
0.556246
0.564805
0.571898
0.591218
0.590758
0.52624
0.544345
0.525594
0.467135
0.501829
0.548312
0.510751
0.534524
0.490873
0.495611
0.584549
0.544718
0.551655
0.502405
0.569716
0.540121
0.543014
0.591453
0.580568
0.573341
0.544579
0.524789
0.523622
0.59538
0.53709
0.541946
0.597395
0.541624
0.521646
0.565958
0.521552
0.592077
0.588058
0.520166
0.549439
0.587938
0.516738
0.496744
0.514811
0.623002
0.623128
0.584613
0.570312
0.516615
0.552332
0.553319
0.574709
0.562212
0.524507
0.532069
0.477375
0.594228
0.521696
0.582966
0.510538
0.545848
0.546196
0.570222
0.509037
0.578625
0.497907
0.515589
0.549676
0.534149
0.595884
0.585082
0.552077
0.493271
0.590661
0.494215
0.570494
0.539476
0.528692
0.502453
0.535539
0.476456
0.582475
0.582088
0.503821
0.518237
0.530229
0.550491
0.52082
0.524166
0.497688
0.457939
0.568732
0.543066
0.502397
0.502215
0.564865
0.56388
0.533973
0.59233
0.471052
0.564892
0.52786
0.586513
0.53804
0.536982
0.580823
0.57012
0.592524
0.581644
0.632732
0.635245
0.577503
0.587677
0.523889
0.60308
0.584407
0.5486
0.529948
0.558277
0.58492
0.477907
0.511879
0.587976
0.556758
0.515773
0.509685
0.516722
0.541617
0.495328
0.551284
0.589867
0.50111
0.589389
0.464465
0.50818
0.572742
0.574399
0.540688
0.520604
0.580468
0.520701
0.52238
0.511273
0.563564
0.520465
0.555645
0.577159
0.545211
0.571417
0.491204
0.587846
0.505654
0.564287
0.59436
0.628398
0.634311
0.537298
0.607211
0.586516
0.520124
0.505737
0.539894
0.558463
0.561039
0.58104
0.532719
0.524464
0.519064
0.55433
0.58842
0.492152
0.565664
0.570423
0.519282
0.5231
0.555322
0.542096
0.587757
0.492014
0.496883
0.591541
0.513564
0.584427
0.53393
0.541526
0.55252
0.549445
0.543056
0.469562
0.545156
0.518583
0.575163
0.527401
0.566202
0.500036
0.519978
0.521728
0.524264
0.506105
0.535248
0.544568
0.56493
0.568444
0.513959
0.59324
0.503534
0.578895
0.60291
0.509432
0.516362
0.490075
0.553236
0.5
0.551033
0.595885
0.471989
0.529893
0.588665
0.531415
0.584136
0.597135
0.519414
0.498611
0.53353
0.516974
0.520939
0.589989
0.530364
0.50483
0.588588
0.571581
0.510883
0.514968
0.537444
0.577785
0.604213
0.512842
0.462931
0.494089
0.587543
0.508639
0.58978
0.626858
0.533247
0.490481
0.581066
0.491121
0.589413
0.497883
0.528582
0.524485
0.493975
0.528114
0.548893
0.515743
0.523556
0.517385
0.512505
0.513897
0.537376
0.512913
0.483266
0.545087
0.557993
0.484118
0.568068
0.595236
0.517545
0.562164
0.523754
0.539066
0.531004
0.512954
0.59057
0.528038
0.484558
0.530125
0.517437
0.522682
0.574258
0.499863
0.561915
0.5869
0.581765
0.519754
0.529837
0.566089
0.601333
0.527522
0.524295
0.583534
0.560151
0.551477
0.535501
0.562714
0.52494
0.526772
0.585811
0.534127
0.509172
0.542456
0.514579
0.515937
0.522675
0.623538
0.62612
0.542474
0.518683
0.546089
0.584496
0.540521
0.588029
0.524525
0.529474
0.527579
0.5465
0.54705
0.571019
0.524465
0.590164
0.603523
0.591351
0.522436
0.55311
0.496188
0.582626
0.569227
0.500943
0.553519
0.517471
0.535686
0.581338
0.542206
0.589681
0.524344
0.543452
0.533979
0.601699
0.546442
0.5399
0.495849
0.510465
0.611926
0.531498
0.535892
0.533359
0.51721
0.591643
0.525797
0.51975
0.513769
0.541713
0.580856
0.588651
0.591367
0.519126
0.589382
0.569573
0.575141
0.516789
0.502939
0.535391
0.497143
0.510543
0.578756
0.525793
0.51238
0.553365
0.592721
0.513523
0.577542
0.501921
0.539613
0.514993
0.612297
0.512521
0.533502
0.517075
0.517393
0.506827
0.553977
0.481416
0.505235
0.618177
0.51806
0.59117
0.49229
0.516838
0.553659
0.543073
0.533994
0.509791
0.554086
0.535987
0.518146
0.573572
0.494219
0.522437
0.591497
0.498364
0.559897
0.507439
0.520692
0.563111
0.594068
0.523079
0.520293
0.505577
0.566897
0.537064
0.57042
0.578149
0.500783
0.501466
0.606835
0.481998
0.529203
0.556411
0.527541
0.515374
0.526784
0.512089
0.570142
0.556954
0.554667
0.497906
0.511535
0.519511
0.595262
0.561702
0.591602
0.510067
0.48601
0.495855
0.523401
0.515628
0.508417
0.56369
0.513181
0.519865
0.576711
0.578502
0.514462
0.575244
0.591502
0.5624
0.602222
0.595596
0.594335
0.560296
0.599685
0.519406
0.525733
0.569336
0.553809
0.571494
0.472796
0.558849
0.585261
0.577167
0.572045
0.546654
0.508174
0.50029
0.561945
0.542555
0.589879
0.514097
0.501344
0.596526
0.520272
0.546409
0.594745
0.535573
0.554931
0.514397
0.558181
0.506282
0.574432
0.517488
0.536255
0.522123
0.515812
0.504041
0.515971
0.528341
0.534393
0.498235
0.519255
0.524564
0.614606
0.515567
0.515334
0.498396
0.559451
0.511861
0.458513
0.56768
0.550877
0.532931
0.466231
0.539269
0.509731
0.504414
0.527714
0.537094
0.58595
0.575481
0.502926
0.504533
0.513873
0.597457
0.565085
0.53513
0.582441
0.509353
0.592072
0.518525
0.599889
0.533875
0.514032
0.548107
0.522711
0.522195
0.583932
0.574307
0.594483
0.559153
0.5784
0.530539
0.542502
0.547121
0.5922
0.56004
0.556898
0.528116
0.537404
0.589551
0.493387
0.48556
0.588764
0.525777
0.543007
0.568812
0.499746
0.519622
0.522002
0.588658
0.539637
0.553571
0.59666
0.500691
0.528173
0.520361
0.576712
0.563239
0.593159
0.5361
0.556917
0.537583
0.555741
0.551849
0.584644
0.564336
0.51772
0.538273
0.563922
0.573986
0.572514
0.554402
0.555853
0.558505
0.530229
0.534767
0.572204
0.587693
0.50787
0.569701
0.591599
0.58655
0.573697
0.541053
0.525264
0.559105
0.502574
0.477227
0.488306
0.542861
0.471552
0.584986
0.569698
0.568048
0.491523
0.513887
0.535003
0.513524
0.554169
0.512969
0.531508
0.574849
0.555993
0.518162
0.593003
0.524549
0.482914
0.584209
0.588676
0.522375
0.574771
0.514741
0.482159
0.534867
0.542478
0.524474
0.51273
0.527804
0.527478
0.597541
0.535692
0.548596
0.516826
0.595642
0.572453
0.521707
0.523025
0.504266
0.559061
0.574222
0.568714
0.520485
0.585281
0.591143
0.543925
0.534611
0.502699
0.549332
0.52457
0.578059
0.578317
0.552369
0.48161
0.609739
0.611752
0.582685
0.597184
0.590952
0.533903
0.46152
0.51816
0.594175
0.590806
0.578217
0.559242
0.502628
0.477227
0.65845
0.506134
0.485145
0.497084
0.58673
0.512843
0.458313
0.519707
0.535706
0.509201
0.526051
0.596131
0.517431
0.62042
0.556369
0.554571
0.519775
0.570934
0.545123
0.491565
0.514463
0.546609
0.534443
0.508628
0.517361
0.481185
0.538198
0.593135
0.531471
0.50399
0.543637
0.518312
0.531041
0.492223
0.589578
0.464406
0.592817
0.505318
0.500327
0.578392
0.573631
0.491688
0.501545
0.572789
0.594562
0.569676
0.591428
0.534425
0.534345
0.557597
0.594985
0.472376
0.524236
0.495174
0.534363
0.612061
0.589253
0.506016
0.541779
0.554574
0.607415
0.567872
0.527914
0.586091
0.537554
0.525199
0.518937
0.53691
0.50211
0.531994
0.516538
0.536112
0.56485
0.559768
0.567121
0.549931
0.517818
0.539287
0.534002
0.615024
0.601834
0.52995
0.542568
0.589168
0.575238
0.577567
0.547252
0.513029
0.500443
0.573129
0.577169
0.546256
0.523058
0.579959
0.622349
0.532532
0.520148
0.496841
0.517901
0.483052
0.489122
0.567277
0.517206
0.527641
0.592388
0.539936
0.478397
0.517566
0.514796
0.516159
0.504334
0.496136
0.479163
0.591094
0.595292
0.509935
0.55539
0.575349
0.578061
0.624078
0.548505
0.526229
0.578584
0.533563
0.573498
0.590787
0.507368
0.52629
0.519959
0.475696
0.49085
0.542295
0.535853
0.538879
0.519033
0.531943
0.572295
0.589018
0.465979
0.531665
0.646216
0.652431
0.495961
0.526606
0.580859
0.542359
0.528166
0.56136
0.556532
0.494975
0.545723
0.579949
0.512435
0.48691
0.470316
0.48312
0.507718
0.575549
0.60905
0.572738
0.570384
0.578103
0.588012
0.480285
0.556514
0.510362
0.574112
0.557873
0.46571
0.557414
0.562393
0.493294
0.472892
0.566866
0.605228
0.545158
0.564927
0.536482
0.613101
0.52889
0.517166
0.605419
0.50255
0.59078
0.5583
0.524657
0.5344
0.560804
0.52479
0.571861
0.526006
0.517633
0.590535
0.512959
0.543306
0.494229
0.580886
0.490127
0.51954
0.590892
0.582856
0.59726
0.475045
0.476277
0.53085
0.520711
0.663475
0.532316
0.54126
0.573998
0.589259
0.615651
0.55114
0.535656
0.551265
0.561721
0.539862
0.557454
0.518651
0.506788
0.516423
0.525762
0.555508
0.517215
0.497819
0.515546
0.572955
0.509717
0.542333
0.46986
0.58539
0.594298
0.531582
0.588285
0.529136
0.577157
0.58981
0.527014
0.540973
0.519772
0.470635
0.499487
0.517577
0.534368
0.50853
0.611367
0.56081
0.509965
0.576417
0.581051
0.574328
0.562469
0.526417
0.466496
0.58051
0.512299
0.573578
0.589021
0.533736
0.523538
0.528301
0.593962
0.509412
0.596271
0.516482
0.530816
0.517
0.525905
0.576722
0.508232
0.569634
0.490965
0.51269
0.539861
0.536089
0.47958
0.485094
0.594821
0.517894
0.547657
0.588677
0.514855
0.583521
0.474621
0.528981
0.55237
0.52088
0.541598
0.505822
0.523816
0.556386
0.559998
0.568274
0.585097
0.522393
0.516146
0.469645
0.586349
0.517446
0.46462
0.508453
0.51043
0.500003
0.522576
0.504409
0.521778
0.526859
0.516247
0.534385
0.51082
0.640092
0.641059
0.592125
0.570036
0.507363
0.558789
0.593996
0.509558
0.499691
0.53402
0.514711
0.58828
0.46037
0.497551
0.553313
0.508357
0.579724
0.569421
0.527484
0.580415
0.509337
0.529685
0.553792
0.57949
0.577858
0.573289
0.505995
0.514521
0.521372
0.525923
0.643589
0.499183
0.559708
0.525828
0.589989
0.608048
0.552482
0.498975
0.502762
0.521778
0.509755
0.512273
0.513488
0.553462
0.563233
0.56836
0.522693
0.50582
0.511077
0.530333
0.510637
0.541102
0.567092
0.497606
0.500861
0.468862
0.54209
0.521651
0.556058
0.51378
0.584001
0.515917
0.557885
0.58665
0.554767
0.549477
0.505422
0.521846
0.548876
0.558879
0.503998
0.516188
0.49851
0.46518
0.460164
0.571957
0.532591
0.511808
0.586018
0.495027
0.55768
0.568186
0.552702
0.532079
0.517783
0.528922
0.58429
0.473201
0.533895
0.460848
0.510929
0.522059
0.519253
0.55223
0.553511
0.586017
0.520698
0.558007
0.546399
0.560603
0.497163
0.550627
0.502065
0.58711
0.592098
0.529015
0.582205
0.568867
0.572094
0.581222
0.569167
0.561926
0.490271
0.576359
0.556888
0.551121
0.594731
0.543861
0.516361
0.520337
0.628385
0.624962
0.610941
0.605246
0.524451
0.594111
0.477513
0.477466
0.607911
0.478688
0.474879
0.560522
0.510186
0.591046
0.55946
0.564142
0.593019
0.541033
0.593503
0.507115
0.52094
0.515539
0.484344
0.597359
0.534192
0.553197
0.503428
0.591077
0.489865
0.561564
0.505831
0.519357
0.591727
0.515673
0.497128
0.600021
0.52722
0.590726
0.568521
0.475193
0.564166
0.522519
0.529022
0.484962
0.643531
0.516887
0.536935
0.545563
0.527682
0.521908
0.562437
0.541258
0.561769
0.538055
0.526643
0.533072
0.60955
0.570789
0.50431
0.501874
0.506527
0.502311
0.52133
0.505294
0.562725
0.592681
0.53292
0.528198
0.618782
0.536888
0.546708
0.607001
0.504781
0.580085
0.533189
0.47559
0.557248
0.487641
0.525784
0.601651
0.591392
0.591851
0.590062
0.503045
0.574952
0.503141
0.52913
0.534607
0.511543
0.565329
0.524486
0.555779
0.578349
0.518248
0.487094
0.575505
0.511331
0.509235
0.572027
0.528306
0.485596
0.503133
0.578065
0.519729
0.549865
0.541083
0.561923
0.615373
0.514593
0.492275
0.574306
0.59096
0.566196
0.54005
0.534193
0.487742
0.546577
0.511876
0.56522
0.491678
0.584673
0.520576
0.570515
0.580651
0.574505
0.489345
0.557176
0.578844
0.596458
0.519564
0.489906
0.503206
0.54205
0.594134
0.592268
0.522235
0.589155
0.531071
0.519678
0.584396
0.48694
0.591927
0.515465
0.526493
0.582007
0.497607
0.552033
0.547606
0.57894
0.507229
0.601672
0.53647
0.495974
0.467192
0.585734
0.575246
0.567277
0.55575
0.515632
0.568263
0.512597
0.499256
0.591365
0.637083
0.633948
0.495647
0.57577
0.619813
0.48186
0.4903
0.604373
0.49283
0.54372
0.484567
0.506661
0.512869
0.510283
0.506925
0.487042
0.606539
0.559868
0.498777
0.532727
0.497255
0.546785
0.544727
0.528643
0.578441
0.563736
0.496234
0.469255
0.524997
0.518684
0.54828
0.604438
0.597691
0.573813
0.576397
0.595018
0.547716
0.52551
0.657814
0.516009
0.482971
0.565039
0.617848
0.582141
0.56683
0.482749
0.546869
0.508682
0.492963
0.493156
0.548405
0.545784
0.573391
0.540425
0.476483
0.619924
0.597179
0.52982
0.48614
0.54188
0.64472
0.654441
0.585465
0.585524
0.587727
0.556966
0.524489
0.483366
0.546664
0.5379
0.522334
0.524221
0.551793
0.475474
0.476191
0.547674
0.59387
0.504374
0.483071
0.552043
0.532625
0.52872
0.529822
0.565486
0.655565
0.532872
0.585441
0.662269
0.668044
0.483161
0.481155
0.560842
0.518199
0.572423
0.561449
0.509585
0.590978
0.536891
0.672296
0.668371
0.552475
0.839978
0.839631
0.779113
0.776625
0.779088
0.776661
0.776703
0.776721
0.467329
0.468416
0.467488
0.468655
0.467959
0.451589
0.45266
0.468724
0.770251
0.767655
0.760925
0.76094
0.779164
0.77673
0.827897
0.826476
0.803501
0.801346
0.795823
0.793563
0.832163
0.830972
0.810622
0.808622
0.822844
0.821244
0.518622
0.452473
0.505485
0.505711
0.428811
0.435816
0.840151
0.838708
0.834929
0.832379
0.831112
0.827997
0.451785
0.5677
0.565648
0.548059
0.460948
0.467763
0.444985
0.451967
0.837952
0.835955
0.699727
0.702316
0.709571
0.712322
0.729434
0.732004
0.739067
0.741813
0.758356
0.761015
0.787951
0.787901
0.785537
0.785524
0.751698
0.751583
0.758509
0.761013
0.76775
0.45233
0.45957
0.436474
0.444188
0.513236
0.511712
0.841607
0.840682
0.785614
0.78807
0.8347
0.834694
0.838387
0.837624
0.428013
0.428669
0.422191
0.428567
0.586871
0.584896
0.475344
0.474428
0.444042
0.444704
0.460062
0.459141
0.420107
0.42829
0.428942
0.436491
0.437224
0.689826
0.692452
0.749103
0.739331
0.741943
0.631909
0.63426
0.641322
0.643875
0.841814
0.841565
0.419564
0.663009
0.660614
0.653459
0.651126
0.653534
0.65124
0.653654
0.651349
0.653774
0.651453
0.653915
0.653835
0.421936
0.840223
0.838711
0.83797
0.429069
0.429697
0.436744
0.841796
0.421764
0.840815
0.835868
0.834896
0.437053
0.444337
0.832279
0.831085
0.827882
0.445073
0.452076
0.452864
0.460056
0.461026
0.467357
0.612667
0.612793
0.596497
0.594416
0.587308
0.459317
0.452746
0.45932
0.512043
0.529776
0.527612
0.520555
0.546495
0.546506
0.497103
0.49807
0.504087
0.584773
0.47429
0.565844
0.565769
0.670049
0.722186
0.719666
0.702536
0.692537
0.71945
0.742105
0.830991
0.767795
0.770351
0.817102
0.767892
0.817056
0.835603
0.669621
0.605584
0.539219
0.505744
0.452781
0.577488
0.490488
0.520259
0.624618
0.558313
0.4368
0.468014
0.841742
0.422263
0.840748
0.429093
0.428495
0.840644
0.841918
0.417717
0.841283
0.699817
0.821297
0.749102
0.832111
0.793998
0.785733
0.83764
0.84226
0.605674
0.539514
0.506108
0.45273
0.631806
0.521923
0.63324
0.577957
0.490385
0.624269
0.558608
0.468215
0.436017
0.84196
0.769917
0.841137
0.719093
0.69945
0.793595
0.820937
0.748726
0.830546
0.837346
0.842056
0.422097
0.779149
0.421838
0.842133
0.593901
0.634256
0.48126
0.810613
0.808643
0.650691
0.682542
0.400163
0.80881
0.643901
0.803613
0.801544
0.641548
0.651056
0.779476
0.801509
0.732012
0.437156
0.841844
0.842461
0.416987
0.842308
0.43658
0.842192
0.41751
0.84252
0.416277
0.767616
0.422018
0.421583
0.842126
0.596235
0.498186
0.482381
0.444811
0.428259
0.614969
0.587112
0.530167
0.568218
0.460302
0.54893
0.475308
0.513595
0.840361
0.417218
0.651845
0.679561
0.808604
0.776783
0.689659
0.803251
0.815058
0.834249
0.709516
0.731578
0.739205
0.758283
0.785393
0.826068
0.839623
0.416791
0.741698
0.739065
0.71221
0.71963
0.616151
0.614081
0.689802
0.692565
0.817005
0.815284
0.748862
0.594385
0.596498
0.59444
0.527521
0.529072
0.596641
0.594679
0.59697
0.496389
0.497853
0.527525
0.528964
0.496111
0.497468
0.565847
0.567826
0.565761
0.56787
0.622556
0.625022
0.623136
0.625376
0.760865
0.767604
0.511265
0.512669
0.546308
0.548146
0.511373
0.512697
0.546238
0.548093
0.692538
0.699937
0.511332
0.513121
0.795843
0.793627
0.84037
0.416826
0.709474
0.712205
0.709744
0.712332
0.751374
0.748721
0.729201
0.731934
0.722017
0.719301
0.751407
0.748753
0.751335
0.748689
0.68006
0.682619
0.751383
0.748748
0.68017
0.682773
0.751375
0.748707
0.751453
0.748763
0.722041
0.719341
0.722058
0.719427
0.702283
0.699635
0.702225
0.699606
0.70213
0.699495
0.702481
0.787684
0.785311
0.787721
0.785355
0.787748
0.785394
0.498238
0.614815
0.460184
0.810573
0.808651
0.443988
0.770189
0.767634
0.835649
0.834703
0.466865
0.468055
0.496607
0.827792
0.826416
0.672616
0.835821
0.834918
0.443862
0.444606
0.837947
0.67014
0.770164
0.767613
0.827901
0.826536
0.810547
0.808608
0.67292
0.670379
0.827954
0.826591
0.770131
0.767571
0.787712
0.78534
0.770141
0.767597
0.770148
0.767607
0.770144
0.672615
0.670128
0.444727
0.817062
0.815359
0.827685
0.826351
0.787744
0.785397
0.660593
0.663054
0.810593
0.80864
0.810641
0.808692
0.81069
0.808752
0.548425
0.537456
0.539171
0.650887
0.65353
0.557817
0.555879
0.567824
0.603705
0.60603
0.57752
0.575297
0.459388
0.460373
0.521843
0.528359
0.511339
0.513204
0.417963
0.415641
0.842382
0.842554
0.413883
0.842538
0.414387
0.416736
0.842534
0.842513
0.416237
0.412878
0.815383
0.817015
0.815314
0.660575
0.83561
0.840342
0.712366
0.709671
0.699731
0.712467
0.82781
0.761252
0.761183
0.758568
0.748942
0.719561
0.722273
0.758353
0.748797
0.751421