# vtk DataFile Version 3.0
Mesh from Gmsh, time = 4
ASCII
DATASET UNSTRUCTURED_GRID
POINTS 2063 double
0 0 0
4 0 0
4 2 0
0 2 0
1.75 1 0
1.5 1.25 0
1.25 1 0
1.5 0.75 0
0.146364 0 0
0.292727 0 0
0.439091 0 0
0.585455 0 0
0.731819 0 0
0.874308 0 0
1.00796 0 0
1.1346 0 0
1.25606 0 0
1.37406 0 0
1.49028 0 0
1.60637 0 0
1.72395 0 0
1.84471 0 0
1.97037 0 0
2.10271 0 0
2.24365 0 0
2.39 0 0
2.53636 0 0
2.68273 0 0
2.82909 0 0
2.97545 0 0
3.12182 0 0
3.26818 0 0
3.41455 0 0
3.56091 0 0
3.70727 0 0
3.85364 0 0
4 0.149227 0
4 0.298455 0
4 0.433632 0
4 0.530941 0
4 0.600143 0
4 0.651803 0
4 0.701545 0
4 0.751288 0
4 0.80103 0
4 0.850773 0
4 0.900515 0
4 0.950258 0
4 1 0
4 1.04974 0
4 1.09948 0
4 1.14923 0
4 1.19897 0
4 1.24871 0
4 1.29845 0
4 1.3482 0
4 1.39986 0
4 1.46906 0
4 1.56637 0
4 1.70155 0
4 1.85077 0
3.85364 2 0
3.70727 2 0
3.56091 2 0
3.41455 2 0
3.26818 2 0
3.12182 2 0
2.97545 2 0
2.82909 2 0
2.68273 2 0
2.53636 2 0
2.39 2 0
2.24365 2 0
2.10271 2 0
1.97037 2 0
1.84471 2 0
1.72395 2 0
1.60637 2 0
1.49028 2 0
1.37406 2 0
1.25606 2 0
1.1346 2 0
1.00796 2 0
0.874308 2 0
0.731819 2 0
0.585455 2 0
0.439091 2 0
0.292727 2 0
0.146364 2 0
0 1.85714 0
0 1.71429 0
0 1.57143 0
0 1.42857 0
0 1.28571 0
0 1.14286 0
0 1 0
0 0.857143 0
0 0.714286 0
0 0.571429 0
0 0.428571 0
0 0.285714 0
0 0.142857 0
1.7488 1.0245 0
1.7452 1.04877 0
1.73924 1.07257 0
1.73097 1.09567 0
1.72048 1.11785 0
1.70787 1.13889 0
1.69325 1.1586 0
1.67678 1.17678 0
1.6586 1.19325 0
1.63889 1.20787 0
1.61785 1.22048 0
1.59567 1.23097 0
1.57257 1.23924 0
1.54877 1.2452 0
1.5245 1.2488 0
1.4755 1.2488 0
1.45123 1.2452 0
1.42743 1.23924 0
1.40433 1.23097 0
1.38215 1.22048 0
1.36111 1.20787 0
1.3414 1.19325 0
1.32322 1.17678 0
1.30675 1.1586 0
1.29213 1.13889 0
1.27952 1.11785 0
1.26903 1.09567 0
1.26076 1.07257 0
1.2548 1.04877 0
1.2512 1.0245 0
1.2512 0.975496 0
1.2548 0.951227 0
1.26076 0.927429 0
1.26903 0.904329 0
1.27952 0.882151 0
1.29213 0.861107 0
1.30675 0.841402 0
1.32322 0.823223 0
1.3414 0.806747 0
1.36111 0.792133 0
1.38215 0.77952 0
1.40433 0.76903 0
1.42743 0.760765 0
1.45123 0.754804 0
1.4755 0.751204 0
1.5245 0.751204 0
1.54877 0.754804 0
1.57257 0.760765 0
1.59567 0.76903 0
1.61785 0.77952 0
1.63889 0.792133 0
1.6586 0.806747 0
1.67678 0.823223 0
1.69325 0.841402 0
1.70787 0.861107 0
1.72048 0.882151 0
1.73097 0.904329 0
1.73924 0.927429 0
1.7452 0.951227 0
1.7488 0.975496 0
2.68976 0.941551 0
2.26201 1.37405 0
2.22061 0.659179 0
3.29293 1.27361 0
1.89949 1.53515 0
3.38932 0.662932 0
1.87644 0.492426 0
2.11401 1.02615 0
0.633242 1.30862 0
0.720943 0.728017 0
1.03818 1.50954 0
1.52657 1.6215 0
1.52997 0.389931 0
1.187 0.488275 0
1.97903 0.783838 0
3.09472 0.927396 0
2.89613 1.29278 0
3.59642 1.01455 0
0.961174 1.19341 0
0.983279 0.923719 0
1.94084 1.21396 0
3.62782 1.3759 0
2.5778 1.24354 0
1.33168 1.47042 0
1.10201 0.706354 0
3.6969 0.723321 0
2.38919 0.913216 0
2.5792 0.59107 0
1.79534 1.33143 0
1.93479 0.972036 0
1.14306 1.26745 0
2.99739 0.502589 0
1.65758 0.567581 0
1.39014 0.558898 0
1.78891 0.684999 0
3.35292 0.93591 0
1.64104 1.39609 0
2.36031 1.14241 0
1.08227 1.06295 0
3.11339 1.61884 0
2.68578 1.6172 0
3.09349 1.16996 0
2.88959 1.06036 0
3.77091 1.1741 0
1.47949 1.40856 0
3.5976 0.367746 0
2.89154 0.831103 0
1.26354 0.678228 0
3.51088 1.20421 0
1.52504 0.620943 0
3.79257 0.914818 0
1.26638 1.30356 0
1.1244 0.864713 0
1.84913 0.834872 0
3.22667 0.781787 0
1.86798 1.08934 0
3.52568 0.830009 0
0.736398 1.04002 0
2.18059 0.333924 0
2.20147 0.859348 0
2.52967 1.05704 0
0.921609 0.512865 0
3.46352 1.36781 0
2.14123 1.21746 0
1.21005 0.782049 0
2.71738 1.13215 0
1.38057 1.33859 0
2.18302 1.67858 0
1.81047 1.18541 0
3.26206 1.09501 0
3.81574 1.35169 0
3.7638 1.5711 0
2.05606 1.42772 0
1.17214 1.15377 0
3.04615 0.764005 0
0.376513 0.895851 0
3.8087 0.561221 0
0.723528 1.64326 0
0.569586 0.362338 0
2.04369 0.590573 0
1.65051 0.677305 0
2.72756 1.28666 0
1.22169 1.71786 0
2.41739 1.30052 0
1.37742 0.665567 0
1.14951 0.982781 0
1.67725 1.3005 0
0.365969 1.53545 0
2.27125 1.00014 0
3.45245 1.05746 0
3.84563 0.769774 0
1.55197 1.34147 0
3.56352 0.680293 0
2.43414 1.55621 0
2.32804 0.776117 0
2.54305 0.906766 0
1.30971 0.261053 0
1.75762 0.254499 0
1.84232 0.949222 0
3.85031 1.05135 0
2.05539 0.896565 0
0.860589 1.40202 0
1.75531 1.74558 0
1.75102 0.773698 0
0.34274 1.21518 0
1.25153 1.22616 0
0.912738 0.736222 0
1.02732 0.273449 0
2.09711 0.741735 0
2.00889 1.08533 0
3.66297 0.861976 0
3.63061 1.15057 0
2.46315 0.801353 0
3.28438 0.380979 0
3.02521 1.05313 0
3.22741 0.963682 0
1.1593 1.41485 0
2.96018 1.17447 0
3.03246 1.2909 0
3.16786 1.28202 0
3.35576 0.793688 0
1.27853 0.760202 0
1.20621 0.857668 0
1.71431 1.57022 0
3.37675 1.16639 0
1.18352 1.07939 0
2.82268 0.948363 0
1.45093 1.32217 0
1.58595 0.688296 0
1.74033 1.21782 0
2.82864 1.18078 0
2.26639 1.23357 0
1.45041 0.680131 0
3.48533 1.71604 0
2.96809 0.935474 0
0.9537 1.7544 0
3.72691 1.05125 0
2.75947 0.838092 0
2.61672 0.768034 0
2.76565 0.64499 0
2.91733 0.691331 0
2.72752 0.318069 0
1.00533 1.34357 0
2.41293 1.02845 0
3.22929 0.575665 0
2.21571 1.11927 0
0.94219 1.04786 0
3.87313 1.23592 0
1.60757 1.30134 0
1.81874 1.01566 0
1.80338 0.8933 0
2.4822 1.17301 0
2.35566 0.503981 0
1.69026 0.743877 0
0.329996 0.578694 0
3.47348 0.938716 0
3.14591 1.05978 0
1.33322 1.27593 0
2.96081 1.47999 0
3.25506 1.46524 0
1.94125 1.36391 0
2.0402 1.29169 0
1.57525 1.50332 0
3.69767 1.25317 0
1.75683 1.44818 0
1.80083 1.1064 0
0.809681 0.87423 0
2.61055 1.44265 0
1.37047 1.62887 0
1.96222 1.71946 0
1.91636 0.650421 0
1.19655 0.92399 0
1.33918 0.731683 0
1.515 0.694369 0
0.77536 0.294365 0
1.05831 1.17202 0
1.95976 0.310934 0
1.69007 0.405977 0
1.76656 0.840229 0
1.20113 1.5671 0
2.80987 0.737943 0
3.46204 0.485136 0
1.32058 0.3951 0
1.46178 1.80595 0
3.89108 0.870761 0
2.60685 1.13937 0
3.41372 1.26688 0
1.9446 0.870798 0
1.06625 0.563984 0
1.43287 1.53846 0
2.63803 1.03416 0
1.01334 0.789025 0
3.12874 0.831843 0
3.57274 1.28605 0
1.56978 0.188817 0
0.784518 1.19935 0
3.89242 0.671623 0
3.23037 1.19627 0
1.77759 0.562779 0
1.8682 0.738499 0
1.48911 0.497962 0
1.23353 1.15971 0
2.75061 1.02754 0
3.79292 0.673099 0
2.1725 0.505649 0
1.86597 1.26131 0
2.71121 0.715281 0
2.36442 0.62418 0
1.16347 0.603576 0
0.535584 1.12503 0
1.2686 0.560984 0
3.27119 0.883165 0
0.278182 0.309814 0
3.35006 1.03977 0
3.68927 0.957943 0
2.18613 0.959579 0
2.28715 0.911028 0
3.30188 0.71863 0
3.75486 0.819582 0
3.52868 1.10801 0
3.44787 0.764426 0
2.18817 1.51149 0
3.60459 0.760447 0
3.56822 0.917725 0
2.04397 1.17699 0
3.89917 1.13467 0
0.637506 0.869736 0
3.88997 1.42379 0
2.23125 0.767052 0
3.02885 0.85771 0
1.25562 0.818754 0
2.63005 0.862723 0
2.66168 1.20817 0
0.500609 1.74809 0
2.80789 1.43571 0
3.91112 0.968056 0
3.06198 0.273506 0
1.20129 1.01601 0
1.84531 1.41557 0
1.68224 1.24327 0
2.15548 1.34077 0
0.882998 1.56714 0
1.39728 1.28657 0
0.571726 1.49715 0
2.03509 0.993924 0
1.63797 0.727438 0
0.49831 0.725817 0
1.07252 0.938175 0
1.76211 1.15632 0
2.11818 1.11863 0
1.31831 1.38515 0
1.51374 1.30079 0
3.80377 0.388577 0
0.703287 0.51087 0
1.3954 0.714519 0
2.04731 1.57379 0
3.43788 0.848522 0
2.95214 0.770551 0
0.235059 1.75954 0
3.1451 0.744535 0
2.02177 0.442894 0
3.91148 1.32333 0
2.46697 0.957492 0
2.91691 1.75563 0
2.37433 0.223671 0
1.07709 1.6277 0
3.2136 0.689844 0
1.20617 0.353637 0
3.73029 1.33472 0
1.06588 0.419959 0
2.64384 1.30103 0
1.59406 0.475919 0
3.78738 1.26577 0
1.59526 0.613003 0
1.87806 1.16955 0
2.35044 1.22951 0
1.39963 1.417 0
2.8118 1.10536 0
3.66188 0.581995 0
2.3844 1.43337 0
1.72039 1.36988 0
1.44411 0.605107 0
3.10693 1.4202 0
3.57538 1.54011 0
2.54757 0.816456 0
2.52966 0.715621 0
1.60156 1.74734 0
1.72394 0.627613 0
2.12296 0.843863 0
2.37898 1.77976 0
1.30318 1.21967 0
0.997017 0.665996 0
2.81443 1.26578 0
1.12858 0.787419 0
3.68547 1.76965 0
1.05883 1.25891 0
3.49634 1.29063 0
1.56127 1.41897 0
1.18784 0.700908 0
1.79549 0.959477 0
2.75876 1.20188 0
2.60702 0.955246 0
0.473036 1.34333 0
2.48955 1.2582 0
0.206605 1.04069 0
1.19616 1.33865 0
3.44183 0.217577 0
1.41993 0.319904 0
2.33391 1.31363 0
3.51887 1.00785 0
3.78317 0.998778 0
1.17123 0.19319 0
2.28952 1.09214 0
2.12376 0.642692 0
2.02735 0.693646 0
3.27513 1.77186 0
3.16852 1.13296 0
0.211109 1.3857 0
1.09756 1.34296 0
1.88613 1.02637 0
1.81276 0.377198 0
0.730563 1.48739 0
1.02034 1.00668 0
3.45413 1.14037 0
2.34646 0.9792 0
1.79363 1.24993 0
1.74128 1.28143 0
2.38153 0.83436 0
0.820718 0.62368 0
2.46509 0.87535 0
1.71852 0.801942 0
3.18904 0.890825 0
2.19223 1.04341 0
1.66962 1.4722 0
1.2208 1.1155 0
1.84072 0.618908 0
1.31192 0.625727 0
1.81262 1.63378 0
1.14483 1.03877 0
0.209036 0.767581 0
1.24437 1.45337 0
2.99672 0.708718 0
3.0773 0.695727 0
1.78831 1.06011 0
1.49471 1.34907 0
1.42869 0.177597 0
2.28606 0.830734 0
0.875181 0.974811 0
0.908539 1.29031 0
0.925843 0.839539 0
0.855361 1.11916 0
1.12478 1.11263 0
2.89366 0.981249 0
3.92059 0.798877 0
2.69305 0.801003 0
3.412 0.989058 0
1.63767 1.26075 0
1.55951 1.2918 0
1.1347 0.923126 0
2.04412 0.811674 0
1.19831 1.20574 0
2.22064 1.29754 0
1.88539 0.157931 0
1.80939 0.794031 0
3.0259 1.13178 0
3.09786 1.24694 0
2.96371 1.25301 0
2.96974 1.3251 0
1.86524 0.890666 0
3.79012 1.09813 0
2.42803 1.10813 0
1.55659 0.544433 0
1.31021 1.85133 0
3.52597 0.750237 0
3.4727 0.687338 0
1.20521 0.969553 0
2.28223 0.70295 0
3.62373 0.69101 0
3.10226 1.32724 0
3.04364 1.37645 0
3.02894 1.21069 0
0.790726 1.82144 0
1.40638 0.463583 0
1.63051 0.303937 0
3.71053 0.201306 0
1.01418 1.1029 0
2.09881 0.957551 0
2.87735 0.550133 0
2.08495 0.171533 0
1.71476 0.689484 0
1.93326 1.11366 0
2.95805 1.09437 0
3.71167 1.12686 0
3.64931 1.07512 0
3.29047 0.994549 0
1.10171 1.84029 0
1.98644 1.44801 0
0.928408 0.368216 0
2.84364 0.667225 0
2.8922 1.13641 0
3.30647 1.19754 0
3.9284 1.05426 0
1.21084 1.2693 0
1.71925 0.490945 0
3.58311 1.20418 0
3.08786 1.01658 0
2.89229 1.21998 0
3.3905 1.5561 0
2.70141 0.468608 0
1.04885 0.869114 0
1.96533 1.28493 0
2.82617 1.02273 0
2.95917 1.01464 0
2.59383 1.80091 0
[...]
CELL_DATA 3964
SCALARS density double 1
LOOKUP_TABLE default
0.733268
0.608751
0.706027
0.70964
0.619789
0.766438
0.669177
0.584419
0.631181
0.401728
0.763188
0.763531
0.731984
0.732487
0.669885
0.61447
0.638684
0.637853
0.62836
0.698095
0.520853
0.347388
0.766725
0.76757
0.720688
0.699097
0.617317
0.697247
0.716292
0.706313
0.708826
0.637119
0.658042
0.655849
0.731309
0.731805
0.725517
0.751192
0.739327
0.642768
0.712548
0.637308
0.752725
0.722164
0.623352
0.767565
0.7674
0.754224
0.767691
0.755939
0.766077
0.766438
0.764984
0.726313
0.63715
0.756994
0.71582
0.71615
0.611676
0.629789
0.635196
0.763034
0.763581
0.757428
0.75801
0.739784
0.766156
0.707705
0.725961
0.76792
0.764359
0.767725
0.636729
0.718393
0.581564
0.752314
0.71452
0.715143
0.725848
0.731065
0.731997
0.710038
0.63466
0.369397
0.527177
0.711551
0.712913
0.712
0.591967
0.636788
0.584907
0.766664
0.734451
0.73248
0.721683
0.768061
0.755746
0.695378
0.631759
0.614224
0.721779
0.724012
0.63749
0.767963
0.758306
0.757647
0.757914
0.704386
0.71666
0.71534
0.727919
0.749565
0.761247
0.603936
0.755494
0.630229
0.634333
0.717746
0.634882
0.716873
0.710609
0.628091
0.629974
0.752821
0.554614
0.707674
0.607489
0.748368
0.537389
0.603373
0.616113
0.759343
0.759986
0.623707
0.685081
0.755071
0.707675
0.767419
0.767598
0.733934
0.722818
0.601779
0.768071
0.751622
0.637534
0.494619
0.549832
0.610139
0.612197
0.7085
0.717727
0.757601
0.64195
0.637823
0.636169
0.753552
0.607093
0.707782
0.560886
0.767815
0.711675
0.698898
0.685961
0.757791
0.613356
0.76143
0.637602
0.755775
0.629351
0.632936
0.638842
0.622656
0.758861
0.758075
0.554656
0.623825
0.529545
0.723355
0.63912
0.63688
0.73303
0.698215
0.700289
0.597935
0.752849
0.760384
0.693145
0.694722
0.762839
0.540706
0.732043
0.716569
0.563969
0.745303
0.750464
0.759061
0.638268
0.564336
0.759795
0.602278
0.637694
0.767897
0.633623
0.716972
0.760881
0.636483
0.367889
0.63085
0.590845
0.636865
0.623217
0.688283
0.690225
0.584369
0.615951
0.700825
0.668145
0.632733
0.523341
0.714367
0.747834
0.721297
0.662483
0.632569
0.766898
0.696929
0.711223
0.711568
0.629079
0.637882
0.638083
0.718883
0.752916
0.506645
0.761362
0.761145
0.714499
0.60311
0.710908
0.608156
0.575544
0.577684
0.443897
0.716878
0.698974
0.709659
0.533848
0.766111
0.627926
0.701557
0.702692
0.641838
0.633328
0.767416
0.613689
0.736017
0.735782
0.639187
0.70853
0.737954
0.76868
0.734522
0.39966
0.539035
0.75679
0.428336
0.464782
0.62687
0.766096
0.733867
0.729794
0.762089
0.738677
0.736423
0.566484
0.583029
0.628301
0.73151
0.49668
0.667691
0.710801
0.662715
0.542268
0.581526
0.591634
0.587501
0.70178
0.730798
0.562037
0.601386
0.728247
0.632898
0.542311
0.60571
0.637935
0.637079
0.632888
0.71022
0.636694
0.566021
0.726617
0.621484
0.594714
0.763614
0.7642
0.768612
0.706404
0.637882
0.743761
0.628947
0.709283
0.703026
0.702042
0.428202
0.624496
0.717142
0.636979
0.759656
0.759873
0.632299
0.713146
0.673628
0.631714
0.672744
0.75675
0.766072
0.762093
0.63227
0.609041
0.585391
0.709548
0.766522
0.6198
0.630803
0.75959
0.767045
0.766534
0.75359
0.768309
0.728919
0.569807
0.760366
0.760855
0.551821
0.526088
0.765996
0.623488
0.596832
0.759698
0.5581
0.71745
0.71622
0.632806
0.734336
0.621081
0.724935
0.61892
0.727752
0.633942
0.766544
0.659714
0.767905
0.755979
0.515693
0.741995
0.768262
0.71293
0.721979
0.766866
0.726853
0.729146
0.62898
0.700163
0.575109
0.638631
0.557395
0.766998
0.684089
0.75678
0.647078
0.755469
0.731557
0.629878
0.720316
0.729907
0.621998
0.704416
0.762762
0.762874
0.617249
0.717493
0.704115
0.725131
0.724836
0.765678
0.765755
0.637341
0.418183
0.712861
0.766325
0.766078
0.716814
0.751007
0.622832
0.733181
0.761607
0.762258
0.637109
0.638938
0.735745
0.508466
0.66251
0.692782
0.691131
0.588696
0.613579
0.638465
0.765329
0.765766
0.766026
0.600753
0.633465
0.726031
0.749698
0.708535
0.711517
0.489905
0.586096
0.694418
0.749424
0.60762
0.51525
0.70963
0.614734
0.767425
0.637929
0.631333
0.728138
0.632893
0.673334
0.70958
0.638727
0.715907
0.556641
0.595941
0.763465
0.592974
0.709714
0.704166
0.590954
0.633495
0.583503
0.605563
0.717513
0.537808
0.59904
0.72676
0.713441
0.612983
0.637994
0.635585
0.578381
0.615984
0.55907
0.767856
0.529029
0.766041
0.623918
0.531951
0.621104
0.633668
0.715639
0.6365
0.761799
0.709311
0.631728
0.71048
0.704223
0.628566
0.722077
0.721985
0.721909
0.724222
0.547996
0.622406
0.60589
0.754587
0.735549
0.592768
0.761953
0.537655
0.715613
0.607344
0.638951
0.630184
0.753026
0.706684
0.705314
0.62218
0.751616
0.731067
0.732203
0.629786
0.627531
0.71125
0.703533
0.76549
0.725077
0.761061
0.701912
0.754767
0.673882
0.578418
0.730779
0.702343
0.766645
0.724346
0.726018
0.765538
0.659177
0.703916
0.746882
0.709092
0.636694
0.603978
0.729412
0.607452
0.62048
0.621296
0.712397
0.55838
0.590562
0.765179
0.76841
0.767758
0.71821
0.668392
0.704532
0.764807
0.765408
0.768306
0.63758
0.724281
0.63579
0.729696
0.748219
0.764837
0.764317
0.658918
0.753051
0.76242
0.730603
0.710699
0.729732
0.728769
0.724157
0.763915
0.732265
0.631391
0.756146
0.623173
0.711155
0.754771
0.67105
0.704555
0.514087
0.683896
0.748172
0.736182
0.633234
0.723063
0.711207
0.72155
0.693464
0.702549
0.710191
0.629655
0.696321
0.626083
0.637318
0.447589
0.631845
0.686577
0.64583
0.707502
0.568259
0.645751
0.62869
0.767467
0.435151
0.416042
0.694565
0.625624
0.629427
0.71106
0.728167
0.706181
0.636417
0.638024
0.768204
0.595547
0.582645
0.763859
0.636195
0.733661
0.718061
0.617191
0.745973
0.637885
0.621789
0.541316
0.736922
0.760837
0.719074
0.62141
0.721446
0.762329
0.745701
0.686097
0.73758
0.637696
0.611735
0.679598
0.752484
0.754885
0.709885
0.709711
0.638324
0.720285
0.767969
0.611074
0.661363
0.765152
0.764712
0.63379
0.704374
0.737596
0.63771
0.630104
0.729095
0.722815
0.766616
0.656106
0.726911
0.714782
0.639011
0.729763
0.602561
0.725998
0.723763
0.585211
0.615139
0.585058
0.757192
0.767513
0.767799
0.437413
0.768462
0.535731
0.729824
0.512948
0.608963
0.63733
0.761148
0.561237
0.762949
0.601272
0.551717
0.563503
0.653331
0.720803
0.719362
0.768148
0.723654
0.629481
0.768158
0.633866
0.634267
0.76499
0.610384
0.744389
0.693939
0.764968
0.743254
0.754237
0.754045
0.767199
0.62964
0.720663
0.7209
0.6321
0.726502
0.727069
0.706263
0.70532
0.669287
0.75932
0.639985
0.62741
0.581988
0.628457
0.754246
0.622105
0.760166
0.739806
0.646407
0.731724
0.712589
0.638032
0.710883
0.662465
0.633287
0.73362
0.635853
0.624723
0.764911
0.632801
0.610458
0.64986
0.634034
0.35102
0.768362
0.661953
0.759236
0.631348
0.712148
0.686614
0.707777
0.733001
0.588191
0.731164
0.731179
0.762743
0.544209
0.727256
0.62384
0.60791
0.690664
0.768056
0.726774
0.655923
0.629147
0.722012
0.722912
0.60513
0.615645
0.60947
0.682748
0.747328
0.532999
0.740848
0.756237
0.731561
0.649202
0.75835
0.766907
0.601558
0.683259
0.767001
0.615357
0.763437
0.40483
0.639965
0.710818
0.557172
0.764861
0.6269
0.615774
0.613329
0.70866
0.628957
0.717617
0.644395
0.751814
0.714684
0.628614
0.716626
0.608186
0.746518
0.690915
0.631234
0.60856
0.620356
0.756109
0.75626
0.554271
0.705559
0.593994
0.689025
0.702028
0.588813
0.767711
0.719246
0.720418
0.643673
0.608492
0.622496
0.616311
0.723343
0.630893
0.75066
0.720658
0.756558
0.634333
0.722901
0.726188
0.629261
0.728575
0.71883
0.691095
0.547815
0.621996
0.578577
0.694359
0.756544
0.699408
0.756438
0.76345
0.626477
0.758653
0.582022
0.629186
0.728344
0.726882
0.755088
0.768083
0.733579
0.767098
0.635755
0.523169
0.481892
0.558665
0.71492
0.754785
0.652413
0.738147
0.710738
0.638796
0.768027
0.63663
0.733211
0.765618
0.736477
0.581161
0.639573
0.747538
0.598929
0.63862
0.624747
0.734923
0.632394
0.623582
0.564052
0.707999
0.601273
0.75464
0.63761
0.670848
0.727377
0.614961
0.750927
0.590745
0.767967
0.626848
0.736309
0.658557
0.481569
0.733564
0.700051
0.761679
0.745839
0.718783
0.656285
0.760333
0.614159
0.70324
0.652109
0.688601
0.703832
0.565905
0.634216
0.638056
0.622126
0.751225
0.728223
0.682381
0.674127
0.755445
0.598136
0.48365
0.767698
0.710839
0.69449
0.726364
0.475637
0.76397
0.694189
0.753759
0.75416
0.451254
0.757467
0.689666
0.747832
0.74797
0.745959
0.631681
0.758469
0.765883
0.539274
0.767959
0.374731
0.374893
0.677803
0.719765
0.633084
0.767299
0.765548
0.767294
0.766908
0.61181
0.608791
0.767045
0.633138
0.767744
0.753465
0.575637
0.691862
0.730948
0.647793
0.76672
0.735993
0.665191
0.684274
0.640569
0.767024
0.766734
0.733442
0.622952
0.559294
0.569196
0.721282
0.660092
0.714584
0.761483
0.761279
0.637409
0.752279
0.768759
0.744244
0.753536
0.702796
0.767597
0.642498
0.637718
0.767509
0.61191
0.697018
0.707513
0.671054
0.629497
0.701299
0.758173
0.757494
0.738862
0.743505
0.71338
0.746604
0.631882
0.768316
0.691311
0.717731
0.551685
0.616487
0.720263
0.731449
0.681805
0.709565
0.708961
0.709558
0.708216
0.709205
0.705974
0.625129
0.727328
0.713622
0.633902
0.609146
0.719438
0.72319
0.730319
0.62942
0.747085
0.767544
0.637049
0.73461
0.700351
0.633884
0.75437
0.754939
0.625085
0.760489
0.727511
0.764826
0.556348
0.47852
0.629263
0.7397
0.724894
0.764341
0.607879
0.724203
0.611409
0.75367
0.578713
0.708405
0.764865
0.558974
0.709726
0.710537
0.582846
0.744029
0.637099
0.766115
0.766627
0.637135
0.76092
0.751175
0.505413
0.763961
0.718495
0.728031
0.617425
0.534239
0.741296
0.473243
0.711973
0.636115
0.707059
0.716073
0.686961
0.674424
0.751119
0.717695
0.639574
0.70924
0.608756
0.687446
0.610048
0.571236
0.606796
0.719911
0.656217
0.648405
0.59906
0.717512
0.71259
0.741898
0.75254
0.617695
0.723985
0.708171
0.519061
0.636571
0.759647
0.611868
0.708915
0.627688
0.598012
0.649758
0.622879
0.763568
0.637544
0.632861
0.747444
0.60465
0.753329
0.767259
0.373702
0.624261
0.757037
0.767728
0.709129
0.766839
0.631467
0.732232
0.632769
0.600974
0.609462
0.628581
0.627091
0.635099
0.734719
0.595316
0.593047
0.718835
0.628191
0.634566
0.569405
0.715083
0.493766
0.730033
0.599283
0.719039
0.721274
0.719454
0.728322
0.723299
0.635775
0.587523
0.766468
0.716953
0.611034
0.749835
0.611248
0.763476
0.719373
0.638538
0.550657
0.724189
0.767137
0.766805
0.586313
0.619722
0.627841
0.727364
0.670328
0.539374
0.702987
0.703285
0.494807
0.763683
0.708222
0.72429
0.690908
0.763528
0.708854
0.76749
0.634204
0.76766
0.767457
0.763301
0.768216
0.699148
0.70805
0.737798
0.7615
0.763717
0.705193
0.503099
0.740852
0.632356
0.76449
0.696975
0.519024
0.703542
0.62397
0.602606
0.575317
0.767506
0.59297
0.497528
0.63436
0.719199
0.761619
0.716111
0.740153
0.596945
0.719788
0.756051
0.598693
0.754091
0.76485
0.764646
0.589758
0.587883
0.547698
0.628103
0.700728
0.753979
0.623904
0.492793
0.712105
0.71102
0.571437
0.767748
0.589296
0.614077
0.736593
0.736695
0.627578
0.736812
0.623905
0.601962
0.590792
0.64031
0.553354
0.531266
0.626428
0.473706
0.638535
0.630763
0.712157
0.700503
0.603074
0.7624
0.603062
0.608072
0.629495
0.766196
0.63192
0.62899
0.765122
0.399935
0.750066
0.708957
0.711281
0.624437
0.766048
0.536357
0.703474
0.734345
0.621592
0.637663
0.686815
0.714053
0.701306
0.628236
0.613058
0.717876
0.621366
0.737779
0.767059
0.712485
0.767034
0.619358
0.581493
0.7509
0.63725
0.753274
0.472103
0.76612
0.61113
0.766966
0.547142
0.635679
0.415358
0.381702
0.407712
0.768222
0.638452
0.682583
0.628957
0.736105
0.767693
0.57302
0.625574
0.684161
0.755822
0.710602
0.702886
0.63603
0.765342
0.706817
0.766976
0.75961
0.748539
0.747481
0.440556
0.633952
0.629217
0.412912
0.661734
0.62772
0.653545
0.684909
0.76278
0.614611
0.659165
0.767501
0.743291
0.743875
0.760342
0.715322
0.724757
0.604339
0.514437
0.767322
0.714075
0.603647
0.767873
0.763452
0.596631
0.597103
0.637225
0.631916
0.612156
0.588534
0.536363
0.63087
0.634504
0.729521
0.756745
0.597534
0.761341
0.723395
0.593865
0.643021
0.687546
0.564646
0.716155
0.631086
0.729906
0.461177
0.662594
0.61696
0.577802
0.625611
0.520963
0.723341
0.708579
0.564045
0.631669
0.748995
0.765341
0.636833
0.767985
0.633724
0.618925
0.621969
0.675741
0.741762
0.636977
0.705648
0.66598
0.718485
0.728009
0.615137
0.652478
0.752445
0.751866
0.700522
0.702499
0.608204
0.685188
0.590499
0.713931
0.617777
0.712724
0.623844
0.768046
0.681739
0.693384
0.760394
0.766718
0.767455
0.744826
0.708009
0.709266
0.591956
0.749629
0.596054
0.697558
0.627084
0.748324
0.529216
0.68618
0.62834
0.569609
0.637755
0.763355
0.767894
0.753423
0.688086
0.634596
0.703787
0.62735
0.521458
0.660735
0.735613
0.607322
0.762094
0.609834
0.635003
0.726541
0.660466
0.635285
0.614849
0.685818
0.610743
0.734598
0.630788
0.724921
0.711542
0.628415
0.714786
0.656512
0.76784
0.636597
0.63832
0.767541
0.674127
0.76252
0.703031
0.624777
0.733112
0.627659
0.624469
0.615201
0.634287
0.767597
0.4921
0.720497
0.718567
0.718344
0.725731
0.737251
0.738589
0.637622
0.620595
0.76726
0.71552
0.635692
0.7292
0.730589
0.765635
0.733396
0.767486
0.713668
0.624101
0.76534
0.645569
0.69716
0.695303
0.638528
0.626721
0.698534
0.733278
0.529931
0.698689
0.752274
0.70564
0.71608
0.632273
0.759837
0.697586
0.710919
0.691569
0.759196
0.760104
0.630652
0.685816
0.622517
0.495374
0.636099
0.580489
0.64714
0.631064
0.754657
0.75591
0.585952
0.762776
0.603329
0.629386
0.706734
0.617021
0.678678
0.634586
0.766051
0.757159
0.625976
0.76052
0.737985
0.637715
0.623854
0.763454
0.618682
0.767644
0.755128
0.709149
0.725686
0.632023
0.701729
0.645021
0.590738
0.603379
0.706419
0.745207
0.62816
0.708342
0.756185
0.631408
0.751604
0.612699
0.767591
0.712833
0.630067
0.61616
0.696901
0.684235
0.63682
0.638733
0.536885
0.615945
0.561808
0.757682
0.756966
0.686773
0.73515
0.611833
0.727347
0.729104
0.638009
0.503129
0.631731
0.710894
0.630675
0.71868
0.707639
0.47171
0.707659
0.618532
0.685
0.766426
0.624944
0.756054
0.627718
0.634953
0.731456
0.767148
0.714131
0.616043
0.600818
0.590044
0.697546
0.766652
0.58216
0.64246
0.762755
0.76764
0.70885
0.714719
0.599961
0.767095
0.76765
0.561546
0.63374
0.580325
0.767075
0.698368
0.703926
0.63237
0.721862
0.767887
0.617324
0.689599
0.618905
0.701847
0.696957
0.689678
0.765655
0.614147
0.768242
0.718007
0.614251
0.755183
0.751051
0.720276
0.626442
0.611793
0.621776
0.741005
0.741835
0.714684
0.76808
0.722152
0.637309
0.764639
0.709508
0.622824
0.767333
0.632963
0.663926
0.723159
0.757375
0.61503
0.623218
0.692695
0.625391
0.633196
0.42007
0.631383
0.630457
0.737938
0.620646
0.76449
0.766323
0.638331
0.605842
0.764743
0.627641
0.608072
0.552948
0.734815
0.624295
0.621158
0.61835
0.72352
0.701894
0.685839
0.766319
0.718248
0.710471
0.710833
0.643903
0.603144
0.638363
0.6682
0.764934
0.570909
0.764633
0.766297
0.465091
0.696022
0.576277
0.759452
0.516275
0.767409
0.621275
0.712453
0.767112
0.757723
0.755882
0.629113
0.75017
0.73041
0.767771
0.767608
0.754157
0.607763
0.752008
0.750968
0.604258
0.742874
0.710759
0.621098
0.637686
0.723915
0.720684
0.755945
0.54691
0.752275
0.696748
0.698783
0.555181
0.62106
0.705866
0.704911
0.713038
0.595086
0.762547
0.744744
0.709729
0.710612
0.51594
0.768075
0.44673
0.761172
0.721111
0.615121
0.708484
0.626329
0.767561
0.568524
0.524605
0.631843
0.691168
0.678938
0.756713
0.606459
0.560197
0.767991
0.767926
0.602364
0.718736
0.635292
0.767496
0.397772
0.433494
0.760526
0.765597
0.728134
0.627237
0.760163
0.446383
0.705618
0.628109
0.611332
0.547516
0.619533
0.768102
0.636005
0.717292
0.640208
0.761592
0.761153
0.752191
0.71366
0.764741
0.649092
0.712721
0.601408
0.638013
0.685248
0.615153
0.723541
0.593481
0.761043
0.626786
0.588169
0.762275
0.537236
0.623546
0.608707
0.674987
0.766441
0.725138
0.605599
0.734824
0.572438
0.704677
0.768286
0.690338
0.71855
0.637303
0.705955
0.706628
0.593591
0.625269
0.631426
0.723942
0.63629
0.76769
0.747288
0.654665
0.767284
0.607712
0.768146
0.628385
0.670822
0.699733
0.626126
0.614389
0.681155
0.694338
0.707514
0.632115
0.70892
0.608919
0.646716
0.676409
0.605405
0.618347
0.692007
0.637492
0.440546
0.725131
0.599831
0.672282
0.767493
0.610031
0.632675
0.709454
0.709579
0.637059
0.619333
0.633897
0.585452
0.600038
0.694997
0.713224
0.686192
0.606725
0.765212
0.70245
0.602757
0.708882
0.765682
0.709258
0.699863
0.500446
0.691546
0.636249
0.731367
0.722418
0.648718
0.37531
0.718772
0.767795
0.766641
0.503254
0.517924
0.737941
0.678464
0.443137
0.503638
0.763273
0.733721
0.634278
0.76468
0.716102
0.612889
0.60744
0.63815
0.658345
0.764102
0.581588
0.685626
0.768271
0.58249
0.63669
0.653043
0.753869
0.609974
0.627011
0.716286
0.717134
0.768088
0.736108
0.736383
0.657418
0.519136
0.74615
0.745404
0.637764
0.62545
0.768292
0.591976
0.736393
0.736572
0.630309
0.68689
0.618897
0.692608
0.732729
0.72951
0.312121
0.660307
0.757074
0.712572
0.763115
0.763262
0.762542
0.634933
0.488551
0.643031
0.697425
0.696875
0.767072
0.625176
0.595835
0.709941
0.638341
0.59945
0.631936
0.636859
0.730663
0.671684
0.763509
0.624757
0.621119
0.745361
0.767953
0.547296
0.707753
0.759184
0.712805
0.70953
0.637592
0.594027
0.6372
0.747812
0.716639
0.61223
0.634502
0.738887
0.707191
0.706873
0.525081
0.689689
0.728913
0.715444
0.488634
0.619197
0.703844
0.613969
0.630208
0.617056
0.767561
0.767369
0.471907
0.627387
0.631872
0.763646
0.719215
0.731863
0.540768
0.616429
0.710319
0.638785
0.632959
0.72221
0.766829
0.767477
0.636401
0.639124
0.525575
0.766893
0.682519
0.583398
0.756482
0.573823
0.345797
0.731662
0.734694
0.602023
0.636401
0.763422
0.676106
0.521534
0.709094
0.643015
0.613611
0.747181
0.597639
0.764316
0.764388
0.661668
0.716141
0.762409
0.595175
0.734574
0.539768
0.61644
0.606039
0.592011
0.734208
0.612879
0.766484
0.543872
0.634909
0.689799
0.759831
0.754978
0.628787
0.456809
0.639019
0.763021
0.765935
0.634875
0.672619
0.76371
0.676628
0.563563
0.705789
0.704403
0.767734
0.742959
0.719735
0.631476
0.756673
0.656149
0.706952
0.767765
0.634532
0.638056
0.760548
0.766073
0.617931
0.566883
0.628488
0.592829
0.631012
0.765333
0.63798
0.703295
0.631449
0.613759
0.704578
0.765533
0.759705
0.630718
0.710662
0.687523
0.691335
0.668793
0.697682
0.622244
0.642672
0.52514
0.653077
0.513487
0.767875
0.756628
0.756718
0.752073
0.748317
0.681351
0.70996
0.71959
0.684968
0.748116
0.612036
0.756838
0.737453
0.633943
0.633241
0.551248
0.648796
0.765641
0.767187
0.638912
0.69726
0.744511
0.766158
0.615843
0.716882
0.762602
0.750017
0.767984
0.63331
0.606332
0.719839
0.560385
0.621049
0.630563
0.625413
0.637623
0.737829
0.738863
0.62507
0.718389
0.567063
0.504118
0.622845
0.717692
0.621009
0.735758
0.641386
0.631948
0.698364
0.760152
0.634765
0.562768
0.64692
0.757105
0.630969
0.704427
0.763092
0.629085
0.610338
0.766104
0.708434
0.51362
0.714761
0.607893
0.663408
0.651313
0.764255
0.647804
0.760511
0.547146
0.701783
0.59009
0.668841
0.701114
0.699607
0.740073
0.595912
0.758846
0.741103
0.627983
0.762126
0.724097
0.748153
0.706939
0.575346
0.618623
0.595604
0.693587
0.673599
0.715827
0.545128
0.578803
0.635142
0.59887
0.636358
0.633026
0.599609
0.763966
0.767781
0.767757
0.713872
0.766663
0.585587
0.760598
0.750259
0.75141
0.679259
0.717698
0.376647
0.63429
0.73792
0.739252
0.714311
0.658389
0.616708
0.619845
0.608885
0.570631
0.611806
0.704025
0.699375
0.767583
0.767891
0.626099
0.70856
0.630103
0.627131
0.727907
0.585775
0.62501
0.609016
0.638999
0.689322
0.633546
0.604493
0.534215
0.767889
0.765556
0.685787
0.597275
0.704041
0.514825
0.678828
0.591225
0.615412
0.612932
0.720631
0.632778
0.623458
0.664339
0.758022
0.703279
0.761554
0.636449
0.665724
0.546051
0.585156
0.710855
0.698765
0.628129
0.631589
0.76754
0.767718
0.63451
0.621552
0.693248
0.684491
0.740332
0.533257
0.745391
0.761885
0.719564
0.766973
0.591243
0.662938
0.715803
0.382931
0.620574
0.705599
0.700383
0.766632
0.766595
0.704026
0.762332
0.750739
0.758379
0.764206
0.764568
0.550132
0.712062
0.618488
0.612969
0.722439
0.719505
0.715439
0.710153
0.724919
0.570787
0.466989
0.75601
0.570546
0.611664
0.619704
0.554479
0.623221
0.707617
0.752522
0.714252
0.624423
0.371151
0.56119
0.673157
0.620763
0.753224
0.600902
0.607933
0.635824
0.764904
0.693875
0.62064
0.618117
0.606595
0.630838
0.720262
0.592421
0.768046
0.621291
0.60941
0.534613
0.71137
0.49697
0.645036
0.747353
0.730207
0.737505
0.546977
0.765417
0.765088
0.414809
0.736361
0.669911
0.547052
0.623499
0.663658