# vtk DataFile Version 3.0
Mesh from Gmsh, time = 1
ASCII
DATASET UNSTRUCTURED_GRID
POINTS 2063 double
0 0 0
4 0 0
4 2 0
0 2 0
1.75 1 0
1.5 1.25 0
1.25 1 0
1.5 0.75 0
0.146364 0 0
0.292727 0 0
0.439091 0 0
0.585455 0 0
0.731819 0 0
0.874308 0 0
1.00796 0 0
1.1346 0 0
1.25606 0 0
1.37406 0 0
1.49028 0 0
1.60637 0 0
1.72395 0 0
1.84471 0 0
1.97037 0 0
2.10271 0 0
2.24365 0 0
2.39 0 0
2.53636 0 0
2.68273 0 0
2.82909 0 0
2.97545 0 0
3.12182 0 0
3.26818 0 0
3.41455 0 0
3.56091 0 0
3.70727 0 0
3.85364 0 0
4 0.149227 0
4 0.298455 0
4 0.433632 0
4 0.530941 0
4 0.600143 0
4 0.651803 0
4 0.701545 0
4 0.751288 0
4 0.80103 0
4 0.850773 0
4 0.900515 0
4 0.950258 0
4 1 0
4 1.04974 0
4 1.09948 0
4 1.14923 0
4 1.19897 0
4 1.24871 0
4 1.29845 0
4 1.3482 0
4 1.39986 0
4 1.46906 0
4 1.56637 0
4 1.70155 0
4 1.85077 0
3.85364 2 0
3.70727 2 0
3.56091 2 0
3.41455 2 0
3.26818 2 0
3.12182 2 0
2.97545 2 0
2.82909 2 0
2.68273 2 0
2.53636 2 0
2.39 2 0
2.24365 2 0
2.10271 2 0
1.97037 2 0
1.84471 2 0
1.72395 2 0
1.60637 2 0
1.49028 2 0
1.37406 2 0
1.25606 2 0
1.1346 2 0
1.00796 2 0
0.874308 2 0
0.731819 2 0
0.585455 2 0
0.439091 2 0
0.292727 2 0
0.146364 2 0
0 1.85714 0
0 1.71429 0
0 1.57143 0
0 1.42857 0
0 1.28571 0
0 1.14286 0
0 1 0
0 0.857143 0
0 0.714286 0
0 0.571429 0
0 0.428571 0
0 0.285714 0
0 0.142857 0
1.7488 1.0245 0
1.7452 1.04877 0
1.73924 1.07257 0
1.73097 1.09567 0
1.72048 1.11785 0
1.70787 1.13889 0
1.69325 1.1586 0
1.67678 1.17678 0
1.6586 1.19325 0
1.63889 1.20787 0
1.61785 1.22048 0
1.59567 1.23097 0
1.57257 1.23924 0
1.54877 1.2452 0
1.5245 1.2488 0
1.4755 1.2488 0
1.45123 1.2452 0
1.42743 1.23924 0
1.40433 1.23097 0
1.38215 1.22048 0
1.36111 1.20787 0
1.3414 1.19325 0
1.32322 1.17678 0
1.30675 1.1586 0
1.29213 1.13889 0
1.27952 1.11785 0
1.26903 1.09567 0
1.26076 1.07257 0
1.2548 1.04877 0
1.2512 1.0245 0
1.2512 0.975496 0
1.2548 0.951227 0
1.26076 0.927429 0
1.26903 0.904329 0
1.27952 0.882151 0
1.29213 0.861107 0
1.30675 0.841402 0
1.32322 0.823223 0
1.3414 0.806747 0
1.36111 0.792133 0
1.38215 0.77952 0
1.40433 0.76903 0
1.42743 0.760765 0
1.45123 0.754804 0
1.4755 0.751204 0
1.5245 0.751204 0
1.54877 0.754804 0
1.57257 0.760765 0
1.59567 0.76903 0
1.61785 0.77952 0
1.63889 0.792133 0
1.6586 0.806747 0
1.67678 0.823223 0
1.69325 0.841402 0
1.70787 0.861107 0
1.72048 0.882151 0
1.73097 0.904329 0
1.73924 0.927429 0
1.7452 0.951227 0
1.7488 0.975496 0
2.68976 0.941551 0
2.26201 1.37405 0
2.22061 0.659179 0
3.29293 1.27361 0
1.89949 1.53515 0
3.38932 0.662932 0
1.87644 0.492426 0
2.11401 1.02615 0
0.633242 1.30862 0
0.720943 0.728017 0
1.03818 1.50954 0
1.52657 1.6215 0
1.52997 0.389931 0
1.187 0.488275 0
1.97903 0.783838 0
3.09472 0.927396 0
2.89613 1.29278 0
3.59642 1.01455 0
0.961174 1.19341 0
0.983279 0.923719 0
1.94084 1.21396 0
3.62782 1.3759 0
2.5778 1.24354 0
1.33168 1.47042 0
1.10201 0.706354 0
3.6969 0.723321 0
2.38919 0.913216 0
2.5792 0.59107 0
1.79534 1.33143 0
1.93479 0.972036 0
1.14306 1.26745 0
2.99739 0.502589 0
1.65758 0.567581 0
1.39014 0.558898 0
1.78891 0.684999 0
3.35292 0.93591 0
1.64104 1.39609 0
2.36031 1.14241 0
1.08227 1.06295 0
3.11339 1.61884 0
2.68578 1.6172 0
3.09349 1.16996 0
2.88959 1.06036 0
3.77091 1.1741 0
1.47949 1.40856 0
3.5976 0.367746 0
2.89154 0.831103 0
1.26354 0.678228 0
3.51088 1.20421 0
1.52504 0.620943 0
3.79257 0.914818 0
1.26638 1.30356 0
1.1244 0.864713 0
1.84913 0.834872 0
3.22667 0.781787 0
1.86798 1.08934 0
3.52568 0.830009 0
0.736398 1.04002 0
2.18059 0.333924 0
2.20147 0.859348 0
2.52967 1.05704 0
0.921609 0.512865 0
3.46352 1.36781 0
2.14123 1.21746 0
1.21005 0.782049 0
2.71738 1.13215 0
1.38057 1.33859 0
2.18302 1.67858 0
1.81047 1.18541 0
3.26206 1.09501 0
3.81574 1.35169 0
3.7638 1.5711 0
2.05606 1.42772 0
1.17214 1.15377 0
3.04615 0.764005 0
0.376513 0.895851 0
3.8087 0.561221 0
0.723528 1.64326 0
0.569586 0.362338 0
2.04369 0.590573 0
1.65051 0.677305 0
2.72756 1.28666 0
1.22169 1.71786 0
2.41739 1.30052 0
1.37742 0.665567 0
1.14951 0.982781 0
1.67725 1.3005 0
0.365969 1.53545 0
2.27125 1.00014 0
3.45245 1.05746 0
3.84563 0.769774 0
1.55197 1.34147 0
3.56352 0.680293 0
2.43414 1.55621 0
2.32804 0.776117 0
2.54305 0.906766 0
1.30971 0.261053 0
1.75762 0.254499 0
1.84232 0.949222 0
3.85031 1.05135 0
2.05539 0.896565 0
0.860589 1.40202 0
1.75531 1.74558 0
1.75102 0.773698 0
0.34274 1.21518 0
1.25153 1.22616 0
0.912738 0.736222 0
1.02732 0.273449 0
2.09711 0.741735 0
2.00889 1.08533 0
3.66297 0.861976 0
3.63061 1.15057 0
2.46315 0.801353 0
3.28438 0.380979 0
3.02521 1.05313 0
3.22741 0.963682 0
1.1593 1.41485 0
2.96018 1.17447 0
3.03246 1.2909 0
3.16786 1.28202 0
3.35576 0.793688 0
1.27853 0.760202 0
1.20621 0.857668 0
1.71431 1.57022 0
3.37675 1.16639 0
1.18352 1.07939 0
2.82268 0.948363 0
1.45093 1.32217 0
1.58595 0.688296 0
1.74033 1.21782 0
2.82864 1.18078 0
2.26639 1.23357 0
1.45041 0.680131 0
3.48533 1.71604 0
2.96809 0.935474 0
0.9537 1.7544 0
3.72691 1.05125 0
2.75947 0.838092 0
2.61672 0.768034 0
2.76565 0.64499 0
2.91733 0.691331 0
2.72752 0.318069 0
1.00533 1.34357 0
2.41293 1.02845 0
3.22929 0.575665 0
2.21571 1.11927 0
0.94219 1.04786 0
3.87313 1.23592 0
1.60757 1.30134 0
1.81874 1.01566 0
1.80338 0.8933 0
2.4822 1.17301 0
2.35566 0.503981 0
1.69026 0.743877 0
0.329996 0.578694 0
3.47348 0.938716 0
3.14591 1.05978 0
1.33322 1.27593 0
2.96081 1.47999 0
3.25506 1.46524 0
1.94125 1.36391 0
2.0402 1.29169 0
1.57525 1.50332 0
3.69767 1.25317 0
1.75683 1.44818 0
1.80083 1.1064 0
0.809681 0.87423 0
2.61055 1.44265 0
1.37047 1.62887 0
1.96222 1.71946 0
1.91636 0.650421 0
1.19655 0.92399 0
1.33918 0.731683 0
1.515 0.694369 0
0.77536 0.294365 0
1.05831 1.17202 0
1.95976 0.310934 0
1.69007 0.405977 0
1.76656 0.840229 0
1.20113 1.5671 0
2.80987 0.737943 0
3.46204 0.485136 0
1.32058 0.3951 0
1.46178 1.80595 0
3.89108 0.870761 0
2.60685 1.13937 0
3.41372 1.26688 0
1.9446 0.870798 0
1.06625 0.563984 0
1.43287 1.53846 0
2.63803 1.03416 0
1.01334 0.789025 0
3.12874 0.831843 0
3.57274 1.28605 0
1.56978 0.188817 0
0.784518 1.19935 0
3.89242 0.671623 0
3.23037 1.19627 0
1.77759 0.562779 0
1.8682 0.738499 0
1.48911 0.497962 0
1.23353 1.15971 0
2.75061 1.02754 0
3.79292 0.673099 0
2.1725 0.505649 0
1.86597 1.26131 0
2.71121 0.715281 0
2.36442 0.62418 0
1.16347 0.603576 0
0.535584 1.12503 0
1.2686 0.560984 0
3.27119 0.883165 0
0.278182 0.309814 0
3.35006 1.03977 0
3.68927 0.957943 0
2.18613 0.959579 0
2.28715 0.911028 0
3.30188 0.71863 0
3.75486 0.819582 0
3.52868 1.10801 0
3.44787 0.764426 0
2.18817 1.51149 0
3.60459 0.760447 0
3.56822 0.917725 0
2.04397 1.17699 0
3.89917 1.13467 0
0.637506 0.869736 0
3.88997 1.42379 0
2.23125 0.767052 0
3.02885 0.85771 0
1.25562 0.818754 0
2.63005 0.862723 0
2.66168 1.20817 0
0.500609 1.74809 0
2.80789 1.43571 0
3.91112 0.968056 0
3.06198 0.273506 0
1.20129 1.01601 0
1.84531 1.41557 0
1.68224 1.24327 0
2.15548 1.34077 0
0.882998 1.56714 0
1.39728 1.28657 0
0.571726 1.49715 0
2.03509 0.993924 0
1.63797 0.727438 0
0.49831 0.725817 0
1.07252 0.938175 0
1.76211 1.15632 0
2.11818 1.11863 0
1.31831 1.38515 0
1.51374 1.30079 0
3.80377 0.388577 0
0.703287 0.51087 0
1.3954 0.714519 0
2.04731 1.57379 0
3.43788 0.848522 0
2.95214 0.770551 0
0.235059 1.75954 0
3.1451 0.744535 0
2.02177 0.442894 0
3.91148 1.32333 0
2.46697 0.957492 0
2.91691 1.75563 0
2.37433 0.223671 0
1.07709 1.6277 0
3.2136 0.689844 0
1.20617 0.353637 0
3.73029 1.33472 0
1.06588 0.419959 0
2.64384 1.30103 0
1.59406 0.475919 0
3.78738 1.26577 0
1.59526 0.613003 0
1.87806 1.16955 0
2.35044 1.22951 0
1.39963 1.417 0
2.8118 1.10536 0
3.66188 0.581995 0
2.3844 1.43337 0
1.72039 1.36988 0
1.44411 0.605107 0
3.10693 1.4202 0
3.57538 1.54011 0
2.54757 0.816456 0
2.52966 0.715621 0
1.60156 1.74734 0
1.72394 0.627613 0
2.12296 0.843863 0
2.37898 1.77976 0
1.30318 1.21967 0
0.997017 0.665996 0
2.81443 1.26578 0
1.12858 0.787419 0
3.68547 1.76965 0
1.05883 1.25891 0
3.49634 1.29063 0
1.56127 1.41897 0
1.18784 0.700908 0
1.79549 0.959477 0
2.75876 1.20188 0
2.60702 0.955246 0
0.473036 1.34333 0
2.48955 1.2582 0
0.206605 1.04069 0
1.19616 1.33865 0
3.44183 0.217577 0
1.41993 0.319904 0
2.33391 1.31363 0
3.51887 1.00785 0
3.78317 0.998778 0
1.17123 0.19319 0
2.28952 1.09214 0
2.12376 0.642692 0
2.02735 0.693646 0
3.27513 1.77186 0
3.16852 1.13296 0
0.211109 1.3857 0
1.09756 1.34296 0
1.88613 1.02637 0
1.81276 0.377198 0
0.730563 1.48739 0
1.02034 1.00668 0
3.45413 1.14037 0
2.34646 0.9792 0
1.79363 1.24993 0
1.74128 1.28143 0
2.38153 0.83436 0
0.820718 0.62368 0
2.46509 0.87535 0
1.71852 0.801942 0
3.18904 0.890825 0
2.19223 1.04341 0
1.66962 1.4722 0
1.2208 1.1155 0
1.84072 0.618908 0
1.31192 0.625727 0
1.81262 1.63378 0
1.14483 1.03877 0
0.209036 0.767581 0
1.24437 1.45337 0
2.99672 0.708718 0
3.0773 0.695727 0
1.78831 1.06011 0
1.49471 1.34907 0
1.42869 0.177597 0
2.28606 0.830734 0
0.875181 0.974811 0
0.908539 1.29031 0
0.925843 0.839539 0
0.855361 1.11916 0
1.12478 1.11263 0
2.89366 0.981249 0
3.92059 0.798877 0
2.69305 0.801003 0
3.412 0.989058 0
1.63767 1.26075 0
1.55951 1.2918 0
1.1347 0.923126 0
2.04412 0.811674 0
1.19831 1.20574 0
2.22064 1.29754 0
1.88539 0.157931 0
1.80939 0.794031 0
3.0259 1.13178 0
3.09786 1.24694 0
2.96371 1.25301 0
2.96974 1.3251 0
1.86524 0.890666 0
3.79012 1.09813 0
2.42803 1.10813 0
1.55659 0.544433 0
1.31021 1.85133 0
3.52597 0.750237 0
3.4727 0.687338 0
1.20521 0.969553 0
2.28223 0.70295 0
3.62373 0.69101 0
3.10226 1.32724 0
3.04364 1.37645 0
3.02894 1.21069 0
0.790726 1.82144 0
1.40638 0.463583 0
1.63051 0.303937 0
3.71053 0.201306 0
1.01418 1.1029 0
2.09881 0.957551 0
2.87735 0.550133 0
2.08495 0.171533 0
1.71476 0.689484 0
1.93326 1.11366 0
2.95805 1.09437 0
3.71167 1.12686 0
3.64931 1.07512 0
3.29047 0.994549 0
1.10171 1.84029 0
1.98644 1.44801 0
0.928408 0.368216 0
2.84364 0.667225 0
2.8922 1.13641 0
3.30647 1.19754 0
3.9284 1.05426 0
1.21084 1.2693 0
1.71925 0.490945 0
3.58311 1.20418 0
3.08786 1.01658 0
2.89229 1.21998 0
3.3905 1.5561 0
2.70141 0.468608 0
1.04885 0.869114 0
1.96533 1.28493 0
2.82617 1.02273 0
2.95917 1.01464 0
2.59383 1.80091 0
[...]
CELL_DATA 3964
SCALARS process_rank int 1
LOOKUP_TABLE default
5
0
5
5
3
6
3
0
1
2
7
7
5
5
2
3
1
1
1
5
3
3
6
6
2
5
0
5
3
4
5
0
2
2
4
4
5
6
5
2
4
0
6
5
2
6
6
7
6
7
7
7
7
4
1
6
5
5
0
1
0
6
6
7
7
5
6
5
4
7
6
6
0
5
0
6
4
4
5
4
5
5
1
2
2
4
4
4
0
0
1
6
5
5
5
6
7
4
1
0
5
4
1
7
6
6
6
3
5
5
5
6
7
1
6
1
0
4
0
2
4
1
0
7
1
4
3
6
0
1
0
7
6
3
3
7
4
7
7
4
5
0
6
6
1
3
1
0
0
5
4
6
2
1
0
6
1
3
0
6
3
5
5
6
0
6
1
6
0
1
1
3
6
6
1
0
2
4
1
0
4
4
4
2
7
7
3
5
7
1
5
4
1
7
6
6
1
1
6
3
0
7
0
5
7
1
3
0
3
2
0
3
3
1
3
5
2
1
1
3
6
4
3
1
6
2
4
4
0
0
0
4
7
2
6
6
4
3
5
3
1
0
2
5
5
3
2
6
2
5
5
2
0
6
1
5
5
1
5
4
6
4
3
1
6
2
2
1
6
4
5
6
5
2
1
3
1
5
3
2
4
2
2
0
3
0
4
4
0
0
5
0
2
2
0
0
0
4
0
1
4
0
1
6
6
7
4
1
5
0
3
4
4
3
1
4
1
7
7
0
4
2
0
2
7
6
7
0
0
0
4
7
0
1
7
7
7
7
6
5
0
6
6
0
0
6
1
1
7
3
4
4
1
5
2
4
1
5
0
6
2
6
6
3
5
7
3
4
6
5
5
0
4
0
0
1
6
5
7
2
7
5
1
4
5
1
3
7
7
1
5
4
4
4
6
6
1
2
4
6
6
2
6
0
2
7
7
1
1
4
2
2
4
3
0
0
0
6
6
6
1
1
4
6
4
4
3
3
5
6
1
2
4
1
6
1
1
2
0
2
4
1
4
0
1
6
3
4
4
3
0
2
0
5
3
2
3
4
0
1
0
0
0
2
7
2
7
0
2
1
1
5
0
7
4
0
4
5
1
4
4
4
3
3
1
1
6
5
1
6
2
3
1
1
1
6
5
5
3
6
4
4
0
0
5
4
6
4
7
5
7
3
3
4
4
7
5
5
6
2
5
6
4
1
3
5
1
2
1
5
0
0
6
6
7
3
2
3
6
7
7
0
4
2
4
6
7
7
2
6
6
4
5
5
5
2
7
5
0
7
1
5
7
3
3
3
2
6
2
0
3
4
2
3
3
5
3
4
3
1
2
0
3
2
4
3
3
1
7
3
3
5
0
0
5
4
4
3
3
6
3
2
6
1
5
4
1
6
0
0
1
4
6
4
1
5
7
6
3
5
1
0
3
7
7
5
4
2
4
7
1
3
7
7
1
5
5
0
0
4
5
6
3
4
4
0
5
3
4
5
0
3
3
7
6
7
2
7
1
5
2
1
0
6
2
7
1
0
3
3
4
4
7
4
0
6
1
0
6
0
4
3
6
4
6
6
6
0
5
5
0
5
5
5
5
2
7
1
0
2
0
6
0
7
5
3
4
4
0
5
3
1
5
0
0
7
1
1
2
0
3
7
3
7
1
4
4
2
4
0
5
5
6
2
4
1
1
2
7
2
3
3
5
5
3
3
0
2
6
2
5
7
2
2
7
6
1
3
6
0
6
2
3
5
1
6
2
0
1
4
0
5
3
6
4
1
5
2
6
4
3
0
0
6
6
3
4
1
2
2
3
6
5
5
2
1
0
0
4
0
6
4
7
0
5
5
1
4
2
4
0
0
0
4
7
4
6
7
1
6
3
1
4
4
7
7
5
6
1
3
2
2
3
7
3
4
2
0
7
1
5
6
4
2
2
6
0
3
1
5
0
1
2
5
1
6
0
2
5
2
6
1
7
1
5
3
2
5
4
6
6
5
2
6
1
2
2
2
2
1
0
1
0
6
3
5
2
7
1
2
7
4
2
4
3
6
5
6
6
2
6
3
6
6
6
1
7
7
2
7
2
3
2
5
0
7
7
6
7
3
0
6
0
7
7
2
4
5
2
7
4
3
4
3
7
7
4
1
0
3
2
3
4
7
6
0
6
7
4
6
3
7
2
1
7
1
3
3
3
0
2
7
7
5
4
4
6
1
6
5
5
2
0
5
5
2
4
4
4
4
4
4
1
5
5
1
1
5
5
5
1
6
6
3
4
3
1
7
7
0
7
5
7
2
3
1
4
4
7
0
2
2
7
1
4
7
2
2
5
2
5
1
6
6
3
6
7
3
6
4
3
0
2
4
2
4
1
4
4
3
2
7
4
0
2
1
3
0
1
0
3
2
2
3
4
3
4
6
1
5
4
1
0
6
1
3
1
3
3
1
7
0
1
6
0
6
6
3
0
7
7
4
7
1
5
0
0
0
0
0
1
5
3
3
5
3
0
2
4
3
5
1
5
5
5
4
5
0
0
6
4
3
7
3
7
3
0
3
5
7
7
1
0
1
2
2
3
5
5
3
6
4
5
3
6
2
6
1
6
6
6
7
2
5
5
6
7
3
2
4
0
7
3
2
3
0
1
1
6
2
2
2
5
6
2
5
1
3
6
1
7
6
6
2
1
1
1
2
6
0
2
5
5
2
6
0
0
4
5
3
4
0
2
1
0
1
0
1
2
1
0
2
5
0
6
0
1
1
6
1
1
7
3
6
4
5
1
7
3
5
3
0
0
5
3
5
0
0
2
1
5
7
5
7
1
1
7
0
7
3
6
1
6
2
1
3
2
3
6
2
2
3
5
7
2
1
4
6
2
4
1
7
3
7
6
6
6
3
0
1
3
2
1
2
5
7
2
3
6
4
4
6
3
5
1
3
6
5
1
6
6
1
0
0
3
1
3
0
1
1
4
6
2
7
4
1
3
2
2
2
2
4
3
2
0
0
0
2
4
5
3
0
7
7
0
6
1
2
1
3
5
1
5
3
5
4
2
3
6
6
5
5
2
5
3
5
1
5
0
7
4
3
6
6
7
5
4
4
0
6
0
3
0
6
2
2
1
1
1
6
7
7
3
1
5
1
2
2
4
1
6
1
3
3
3
0
0
2
2
2
1
2
4
0
5
3
7
0
1
7
2
6
5
0
5
1
2
0
1
7
2
3
4
4
4
5
5
1
1
7
2
1
4
4
7
4
7
5
0
6
3
5
5
1
0
4
4
1
4
6
5
5
1
6
2
5
4
6
6
0
3
0
2
0
2
3
1
6
6
2
7
0
0
5
1
3
1
7
7
0
6
4
1
3
7
1
6
6
5
5
0
4
2
0
0
5
4
1
5
7
1
6
2
6
2
0
3
4
4
0
0
3
1
1
7
7
2
2
3
5
5
2
2
0
4
1
5
5
2
5
0
2
6
1
7
3
1
5
6
4
1
1
3
4
7
0
2
6
6
3
5
3
6
7
2
1
2
6
2
5
1
5
6
0
2
1
3
4
2
7
1
7
5
3
7
6
5
0
0
1
4
4
5
7
4
1
7
4
2
7
0
2
4
6
0
2
5
1
1
3
1
1
5
1
7
7
2
2
6
0
1
0
5
3
0
1
4
2
3
7
5
4
4
3
0
0
3
7
1
7
6
3
4
3
7
3
6
0
4
7
7
7
0
6
3
7
7
6
3
6
6
1
4
2
2
0
5
3
7
3
6
4
4
3
0
4
4
2
3
6
4
5
5
2
6
3
7
5
1
5
1
6
1
1
1
5
3
7
1
3
7
7
3
4
1
6
2
2
6
7
4
0
6
3
5
0
0
0
0
7
1
3
1
6
6
6
5
7
2
5
2
0
4
0
4
2
7
3
2
7
3
0
0
2
7
3
0
4
3
5
7
3
4
1
4
4
0
1
0
5
1
6
6
3
7
3
6
2
2
2
3
0
3
4
4
0
4
0
2
3
1
1
5
0
3
3
1
3
6
3
0
5
5
1
1
0
1
0
4
4
3
2
6
4
1
5
7
5
3
3
2
0
3
3
2
3
5
7
7
2
1
4
2
2
2
7
5
3
7
4
0
0
1
2
7
2
4
7
3
0
3
7
0
1
5
5
7
5
5
2
2
6
6
0
3
7
2
5
5
1
5
0
3
5
4
2
3
6
5
6
6
6
1
2
3
4
5
7
1
0
2
0
1
1
0
4
3
6
0
1
6
6
2
4
7
4
5
0
2
1
6
4
0
1
5
5
5
3
4
5
2
2
2
5
3
1
2
6
6
3
1
0
6
4
2
3
1
4
0
2
5
7
7
1
2
0
7
4
1
6
0
2
3
5
3
0
7
4
3
5
3
1
7
0
6
6
2
2
6
0
3
0
1
2
1
5
0
7
1
1
3
6
6
0
2
1
7
7
0
2
6
5
3
4
4
6
4
4
1
7
3
5
6
1
0
7
6
0
1
0
2
0
7
0
4
1
3
5
6
7
1
2
2
5
2
5
1
2
2
2
2
6
6
6
7
6
2
5
5
5
7
0
6
5
2
1
2
3
7
7
0
5
4
7
1
3
7
6
7
1
0
4
3
0
1
2
1
5
5
0
2
3
3
1
2
1
2
3
3
5
7
1
0
2
6
1
4
7
0
2
7
5
3
3
2
2
3
7
3
6
0
4
0
3
4
4
5
0
6
5
0
7
4
6
5
2
1
3
2
5
5
3
1
1
1
1
3
1
6
7
7
2
7
2
6
7
7
2
3
3
1
4
4
3
2
3
0
0
3
2
5
2
6
6
3
2
1
1
5
2
0
1
1
4
0
1
3
7
7
5
3
4
3
2
0
0
3
4
1
3
2
6
4
7
1
3
2
3
2
4
1
1
6
6
3
1
5
5
5
3
4
6
3
7
0
3
5
2
1
2
2
6
6
4
6
7
6
7
7
0
5
0
2
4
2
5
5
5
0
2
6
0
0
1
3
0
5
7
5
1
3
0
3
0
7
3
3
1
6
4
1
0
1
0
5
1
6
0
2
1
3
2
3
6
2
4
1
6
6
2
5
3
3
0
3
5
7
3
0
6
1
5
6
4
4
2
0
1
2
7
6
6
6
0
6
6
4
5
2
0
1
7
7
3
2
1
3
2
1
0
3
3
7
4
3
6
7
2
6
5
5
0
2
4
1
1
3
3
6
4
4
7
7
3
6
3
3
3
5
0
2
7
2
3
2
2
0
0
5
1
2
1
4
4
1
5
7
3
3
6
6
3
4
2
3
2
1
2
7
0
7
4
6
7
2
7
6
5
5
4
2
2
2
0
0
6
6
7
7
4
5
5
3
6
2
1
7
7
6
6
5
2
1
0
1
2
5
5
6
6
2
1
0
1
2
5
2
6
2
4
0
4
4
4
6
1
4
1
4
3
3
2
6
4
2
3
2
4
4
5
6
4
4
6
4
4
6
6
7
3
2
1
6
2
1
7
1
6
7
5
6
5
3
4
7
4
0
6
7
2
1
0
1
6
6
6
1
6
0
3
3
7
0
2
5
5
2
5
1
2
5
2
1
3
1
5
0
1
7
5
5
0
5
4
2
2
5
6
5
2
4
0
6
1
5
4
1
3
0
7
7
4
4
2
1
1
3
3
2
6
4
7
6
3
0
0
0
0
3
4
4
3
0
3
3
7
7
4
5
1
0
5
7
1
7
1
7
5
3
4
3
3
7
1
3
2
2
0
7
7
1
0
2
4
3
7
7
2
6
6
6
2
4
4
4
2
2
2
2
5
1
6
3
4
7
7
2
6
7
3
5
6
6
5
2
3
7
6
7
7
5
3
2
4
3
6
5
1
1
7
4
5
5
2
0
7
7
7
4
6
2
6
0
5
3
6
4
5
1
7
7
7
0
0
2
1
5
5
7
7
0
7
1
2
1
0
0
0
4
5
0
5
0
0
4
6
0
0
7
7
5
5
5
4
2
4
3
2
2
2
6
4
5
0
4
0
2
1
6
1
6
1
1
2
1
6
5
1
4
7
4
3
7
4
7
4
2
4
5
5
6
5
5
3
3
1
7
4
6
3
5
3
6
6
3
3
1
3
1
6
0
5
6
6
6
1
7
4
6
7
2
3
1
0
5
3
7
1
0
2
0
3
3
7
2
5
5
3
3
6
6
2
5
2
0
1
3
6
1
6
1
7
1
3
4
4
4
3
2
1
5
7
7
7
3
0
1
0
5
5
5
7
1
0
5
5
1
5
3
2
0
0
6
4
4
4
3
6
5
1
4
7
7
3
4
4
7
6
2
7
1
2
4
4
2
7
5
5
7
6
5
6
6
4
4
2
0
7
0
5
2
5
5
1
6
4
3
6
3
4
6
6
2
6
1
2
2
5
7
1
2
4
7
7
0
7
7
5
2
2
7
7
1
2
2
7
5
3
5
5
5
7
7
4
4
4
4
7
2
2
3
0
6
7
3
0
6
6
6
2
6
4
7
5
7
7
2
1
6
4
0
4
4
3
6
2
7
0
5
2
0
3
3
1
5
5
0
3
3
7
0
5
1
0
5
5
0
7
7
0
7
2
5
2
2
0
4
2
1
6
6
4
7
2
3
6
1
5
4
3
4
3
0
7
5
5
1
0
7
7
7
7
7
3
4
1
5
5
7
0
0
3
6
4
4
7
6
6
6
7
7
6
1
1
1
0
1
6
4
0
0
1
6
6
4
5
3
7
1
7
5
6
5
4
7
4
6
2
1
7
0
3
7
6
6
5
7
4
4
5
6
0
5
3
1
5
5
5
2
3
1
7
0
1
1
1
7
7
6
0
1
1
5
6
3
0
0
7
2
7
5
2
7
7
6
4
6
5
4
4
7
6
1
2
7
5
1
6
2
2
1
5
6
0
2
2
7
2
0
0
0
7
6
2
2
0
1
0
3
6
2
2
2
1
3
5
3
0
3
2
2
7
1
0
5
5
2
2
7
1
1
6
5
2
0
6
3
6
0
0
7
4
2
2
6
3
0
0
5
5
3
6
7
7
7
1
1
5
2
1
2
4
1
2
6
6
2
0
7
7
7
5
1
4
6
7
4
4
2
1
0
2
3
2
5
7
7
5
1
4
0
5
2
1
3
4
1
3
3
2
0
3
4
7
7
4
5
4
1
1
3
7
1
6
6
5
4
2
0
5
3
0
1
6
3
5
6
2
7
1
4
1
5
0
1
5
7
7
5
5
6
2
2
3
7
3
3
4
1
4
4
1
1
6
5
5
6
7
1
6
7
4
5
3
3
7
1
4
4
4
2
5
0
0
0
5
7
3
3
3
1
4
6
1
4
4
6
0
7
1
6
6
5
3
0
3
1
4
6
0
3
0
0
3
4
2
2
6
3
6
4
1
6
7
3
4
3
1
3
4
2
6
7
7
5
2
6
3
0
5
7
2
3
3
2
4
1
7
4
7
7
2
6
0
3
2
0
4
1
5
0
6
2
0
4
6
6
1
1
7
1
5
0
7
0
0
2
5
7
4
4
5
2
3
7
6
7
0
5
2
3
3
0
5
5
7
7
7
7
3
5
2
2
0
4
5
4
5
6
1
7
6
0
0
2
1
4
7
7
6
3
5
2
0
0
0
7
2
4
7
0
3
1
6
0
2
4
6
7
5
1
2
2
3
7
0
3
7
3
3
7
7
3
3
7
7
0
4
1
4
1
1
7
7
4
5
7
5
0
0
1
4
4
3
7
5
5
4
4
0
3
4
4
6
4
7
7
3
3
0
4
4
1
2
5
3
2
3
0
3
7
4
2
1
0
1
4
4
1
1
7
1
6
4
4
2
3
6
4
7
2
7
4
4
2
3
3
3
2
4
3
3
3
7
0
4
7
4
7
0
6
6
0
6
1
2
4
5
5
2
1
2
1
3
4
0
6
1
7
7
7
5
5
1
0
3
4
5
4
5
6
3
3
1
3
1
4
7
4
2
7
3
0
3
5
7
7
7
7
2
4
3
3
0
4
7
6
2
4
4
4
0
4
3
4
4
2
0
7
1
0
1
0
0
2
6
1
3
3
1
3
7
0
2
0
3
4
6
7
3
2
7
7
7
0
7
4
0
5
4
2
0
0
4
4
7
4
3
5
3
6
1
3
3
0
4
7
7
0
4
4
7
0
5
3
1
2
6
4
4
3
1
7
0
6
6
4
4
7
1
0
0
1
4
3
2
3
5
5
0
4
2
1
4
4
0
5
3
7
6
6
3
5
5
7
4
4
3
0
6
0
1
5
5
4
3
0
7
1
5
0
0
0
4
0
6
4
4
0
0
4
1
1
7
1
4
1
4
4
2
3
3
4
3
6
4
4
3
5
2
7
7
1
2
6
3
1
6
7
7
7
6
6
1
4
2
6
5
7
4
5
1
0
4
3
3
4
3
7
4
5
3
4
7
3
3
5
0
7
7
7
4
2
5
4
0
6
5
2
6
6
5
3
2
6
0
7
4
6
6
2
5
7
4
2
7
7
2
6
4
4
7
5
7
3
4
4
2
6
0
2
6
1
2
0
6
7
3
2
2
2
7
0
0
3
7
2
2
3
5
0
1
1
1
2
1
1
0
0
2
2
5
6
4
4
1
3
6
5
5
3
0
4
3
2
6
6
2
5
6
3
0
4
2
7
3
4
2
4
5
7
4
4
2
0
3
5
7
5
5
2
6
6
4
0
1
0
2
3
2
7
5
2
5
5
6
4
5
7
7
5
3
1
2
6
6
6
0
6
3
0
3
5
2
7
6
5
2
5
0
5
5
3
0
0
0
2
1
6
5
1
7
7
7
7
5
5
5
5
5
5
5
0
0
7
3
7
4
1
0
2
4
3
5
0
5
2
1
0
6
6
7
7
7
3
2
3
7
7
7
6
6
4
7
2
5
6
6
4
7
5
5
6
4
4
6
5
6
6
6
4
5
7
6
SCALARS density double 1
LOOKUP_TABLE default
0.125
0.164203
0.125
0.125
0.129519
0.125
0.125013
0.15117
0.208294
0.14153
0.125
0.125
0.125
0.125
0.125037
0.131693
0.257677
0.212761
0.173043
0.125
0.13307
0.131511
0.125
0.125
0.125002
0.125
0.169701
0.125
0.125
0.125
0.125
0.26817
0.125053
0.125058
0.125
0.125
0.125
0.125
0.125
0.125072
0.125
0.173508
0.125
0.125
0.126907
0.125
0.125
0.125
0.125
0.125
0.125
0.125
0.125
0.125
0.268058
0.125
0.125
0.125
0.17241
0.198808
0.268906
0.125
0.125
0.125
0.125
0.125
0.125
0.125
0.125
0.125
0.125
0.125
0.174095
0.125
0.161304
0.125
0.125
0.125
0.125
0.125
0.125
0.125
0.264253
0.140019
0.125913
0.125
0.125
0.125
0.160957
0.173532
0.173595
0.125
0.125
0.125
0.125
0.125
0.125
0.125
0.224806
0.167563
0.125
0.125
0.191384
0.125
0.125
0.125
0.125
0.125004
0.125
0.125
0.125
0.125
0.125
0.164364
0.125
0.191295
0.265168
0.125
0.17336
0.125002
0.125
0.173046
0.174534
0.125
0.15909
0.125
0.131578
0.125
0.156158
0.164834
0.17319
0.125
0.125
0.127792
0.125002
0.125
0.125
0.125
0.125
0.125
0.125
0.164177
0.125
0.125
0.241955
0.134968
0.151135
0.166029
0.168448
0.125
0.125
0.125
0.125087
0.173351
0.22036
0.125
0.15577
0.125
0.144814
0.125
0.125001
0.125
0.125001
0.125
0.169811
0.125
0.250127
0.125
0.17229
0.173097
0.173731
0.127246
0.125
0.125
0.148684
0.17147
0.132743
0.125
0.263419
0.173694
0.125
0.125
0.125
0.130839
0.125
0.125
0.125001
0.125
0.125
0.149769
0.125
0.125
0.156184
0.125
0.125
0.125
0.17339
0.151349
0.125
0.126988
0.192138
0.125
0.173419
0.125
0.125
0.173392
0.132688
0.173857
0.127854
0.125145
0.185597
0.125002
0.125001
0.163148
0.127042
0.125
0.125013
0.265379
0.147083
0.125
0.125
0.125
0.125027
0.172874
0.125
0.125011
0.125
0.125
0.172597
0.265423
0.200931
0.125
0.125
0.150971
0.125
0.125
0.125
0.126459
0.125
0.133379
0.158965
0.159069
0.137212
0.125
0.125
0.125001
0.125804
0.125
0.126244
0.125
0.125
0.125097
0.173317
0.125
0.169676
0.125
0.125
0.174069
0.125
0.125
0.125
0.125
0.132042
0.152003
0.125
0.129874
0.128672
0.187466
0.125
0.125
0.125
0.125
0.125
0.125001
0.172858
0.126911
0.17243
0.125
0.147193
0.125034
0.125
0.125025
0.134558
0.154037
0.14012
0.151141
0.125
0.125
0.156523
0.146308
0.125
0.212823
0.126053
0.128972
0.173432
0.202467
0.176896
0.125
0.235699
0.154243
0.125
0.170537
0.158015
0.125
0.125
0.125
0.125
0.226402
0.125
0.174003
0.125
0.125
0.125
0.133127
0.185377
0.125
0.200184
0.125
0.125
0.228792
0.125
0.125006
0.256743
0.125021
0.125
0.125
0.125
0.173751
0.151658
0.154351
0.125
0.125
0.179572
0.182665
0.125
0.125
0.125
0.125
0.125
0.125
0.147465
0.125
0.125
0.145372
0.153024
0.125
0.172702
0.181998
0.125
0.133874
0.125
0.125
0.251572
0.125
0.128328
0.125
0.172657
0.125
0.227691
0.125
0.125039
0.125
0.125
0.131431
0.125
0.125
0.125004
0.125
0.125
0.125
0.125
0.173742
0.125
0.161519
0.243506
0.158215
0.125
0.125001
0.125
0.125079
0.125
0.125
0.177586
0.125
0.125
0.172485
0.125
0.125
0.125
0.170917
0.125
0.125
0.125
0.125
0.125
0.125
0.173449
0.140536
0.125
0.125
0.125
0.125
0.125
0.182228
0.125001
0.125
0.125
0.265665
0.17351
0.125
0.129372
0.125024
0.125
0.125003
0.168077
0.17858
0.255966
0.125
0.125
0.125
0.161683
0.2584
0.125
0.125
0.125
0.125
0.147077
0.126885
0.125
0.125
0.157273
0.128435
0.125
0.169217
0.125
0.199913
0.173125
0.125
0.245253
0.125018
0.125
0.173495
0.125
0.153212
0.164005
0.125
0.128822
0.125
0.125
0.125952
0.258248
0.130914
0.166377
0.125
0.129041
0.142211
0.125002
0.125
0.168157
0.17706
0.187988
0.16609
0.180224
0.125972
0.125
0.126736
0.125
0.171228
0.129562
0.174798
0.174198
0.125
0.174778
0.125
0.125
0.268211
0.125
0.125
0.189363
0.125
0.125
0.125
0.125002
0.13848
0.172589
0.165939
0.125
0.125
0.155415
0.125
0.142059
0.125004
0.16742
0.266203
0.172665
0.125
0.125
0.125
0.126439
0.125
0.125
0.125
0.173312
0.173873
0.125
0.125
0.125
0.125
0.125
0.125
0.125
0.125012
0.126446
0.125
0.125
0.125
0.125
0.125
0.125
0.125038
0.125
0.125
0.125
0.173401
0.136635
0.125
0.169037
0.130134
0.172573
0.125
0.156282
0.163044
0.125
0.125
0.125
0.125003
0.125031
0.125004
0.125
0.125
0.125
0.173385
0.125
0.125113
0.125
0.125
0.125
0.125
0.125061
0.125
0.125
0.125
0.125
0.125
0.125
0.125
0.125
0.125
0.246346
0.125
0.188889
0.125
0.125
0.125009
0.125
0.139781
0.125006
0.125
0.125001
0.18796
0.125002
0.125
0.125002
0.125002
0.125
0.125
0.125104
0.125
0.126687
0.173379
0.133251
0.174173
0.125018
0.125105
0.125
0.144394
0.125089
0.184091
0.125
0.14035
0.140373
0.125
0.172119
0.174137
0.125
0.125
0.125
0.125094
0.125521
0.125
0.137375
0.125682
0.125
0.17393
0.125
0.125
0.171111
0.125
0.173901
0.1764
0.15659
0.125
0.125
0.125
0.173571
0.125
0.125
0.125
0.125016
0.125
0.180171
0.168713
0.125013
0.125
0.125
0.125
0.125
0.12515
0.125
0.125
0.169758
0.125036
0.125
0.125
0.18645
0.125
0.125
0.268526
0.176667
0.125
0.125
0.125
0.125053
0.125
0.125
0.173807
0.125
0.125346
0.125
0.125
0.158858
0.128705
0.125288
0.125
0.125
0.125
0.137298
0.125
0.158243
0.125
0.126389
0.167038
0.174302
0.125
0.133093
0.125
0.159852
0.148579
0.133051
0.125116
0.125
0.125
0.125
0.125
0.172572
0.125
0.174396
0.173246
0.125
0.167339
0.125
0.125006
0.125
0.125
0.125
0.125
0.125
0.180234
0.125
0.125
0.173308
0.125
0.125
0.125
0.125
0.125035
0.125
0.173315
0.174238
0.137398
0.172262
0.125
0.174911
0.125
0.125
0.125238
0.125
0.125
0.180364
0.125
0.125029
0.217636
0.125
0.178854
0.172245
0.125
0.181069
0.166747
0.125104
0.179805
0.135819
0.125
0.125032
0.125
0.189549
0.125
0.125001
0.125
0.125
0.17681
0.125
0.125
0.125
0.130775
0.125
0.172679
0.172016
0.125002
0.125
0.125
0.125041
0.12549
0.125
0.125
0.12521
0.125134
0.144847
0.12501
0.125
0.127196
0.125
0.125
0.125
0.125095
0.125
0.125
0.171014
0.125008
0.125
0.169888
0.125
0.135747
0.125061
0.125
0.162231
0.125
0.125921
0.170305
0.16979
0.125
0.172514
0.125
0.125116
0.125
0.125
0.172606
0.125
0.141613
0.125
0.125
0.126074
0.165631
0.177983
0.125
0.125
0.128128
0.125
0.172643
0.125002
0.125007
0.139561
0.125
0.125
0.125
0.125159
0.163761
0.180599
0.174815
0.125
0.17297
0.125
0.125
0.125
0.216375
0.125
0.125
0.217346
0.125
0.125
0.125
0.15814
0.183962
0.162635
0.125
0.125
0.125
0.125
0.125
0.175202
0.125
0.125929
0.17877
0.125
0.125
0.125
0.125
0.125
0.125
0.199998
0.137452
0.13943
0.125609
0.125003
0.125
0.12513
0.125
0.125004
0.266523
0.125
0.17442
0.125
0.125
0.125
0.142137
0.125123
0.125
0.150476
0.125565
0.188913
0.125
0.186298
0.173001
0.139567
0.125
0.15633
0.125
0.173613
0.125022
0.125
0.12533
0.125
0.164403
0.125
0.174061
0.125
0.125047
0.131901
0.125
0.125
0.125
0.125
0.125
0.125055
0.125
0.16945
0.125
0.125085
0.125015
0.125
0.164144
0.268119
0.173418
0.189981
0.125
0.125
0.125002
0.125006
0.125
0.165013
0.128045
0.125
0.125
0.125006
0.125
0.129907
0.125
0.125
0.125
0.125
0.130598
0.125
0.125009
0.125
0.125
0.125
0.172928
0.125
0.125
0.139384
0.125
0.129531
0.137012
0.125023
0.125
0.268861
0.125
0.125
0.125
0.125
0.125268
0.145574
0.125
0.173201
0.125
0.125
0.126555
0.125
0.125
0.12509
0.125
0.125
0.125033
0.125001
0.125074
0.125
0.125
0.125
0.171651
0.153397
0.13867
0.125
0.12505
0.125
0.125
0.125
0.173826
0.125
0.125
0.125
0.125
0.125007
0.125
0.125167
0.192303
0.125
0.168937
0.125004
0.125
0.125016
0.173167
0.125008
0.125
0.125
0.125
0.125
0.125
0.125
0.173432
0.125
0.125
0.125
0.125925
0.169945
0.125
0.125
0.125008
0.125
0.125
0.125
0.125
0.125
0.125
0.173096
0.125
0.125
0.173335
0.182204
0.125
0.125
0.125
0.173251
0.125
0.125
0.125699
0.125
0.125002
0.268799
0.125
0.125
0.172461
0.125
0.125
0.125
0.126241
0.131132
0.182828
0.125
0.125
0.125
0.166439
0.125002
0.125406
0.125
0.153329
0.125
0.125
0.140278
0.125
0.125
0.125355
0.125
0.226791
0.125
0.125
0.125302
0.125
0.125
0.130908
0.125
0.125
0.125
0.17235
0.127785
0.125
0.13534
0.125
0.240694
0.125
0.125
0.125002
0.125032
0.125
0.125
0.199975
0.125003
0.167356
0.125003
0.165109
0.160383
0.167541
0.125002
0.125044
0.125147
0.125181
0.125
0.125
0.125
0.125
0.170938
0.125
0.125
0.16159
0.180234
0.125
0.165475
0.125
0.175012
0.125769
0.12515
0.185039
0.125
0.174453
0.207058
0.125
0.164791
0.125
0.125
0.1332
0.171283
0.125
0.125
0.125
0.125
0.185553
0.125
0.17302
0.165162
0.156382
0.185337
0.175297
0.215798
0.125
0.126391
0.13246
0.125
0.125736
0.242696
0.125454
0.125
0.152638
0.125
0.178479
0.125
0.125
0.125
0.125
0.125
0.186127
0.14552
0.125
0.125
0.139086
0.125
0.13545
0.125
0.125
0.175484
0.142778
0.125
0.125
0.125
0.17361
0.17448
0.174498
0.125001
0.125018
0.136646
0.125
0.125
0.150871
0.125
0.125
0.125
0.125002
0.125
0.125
0.125
0.173206
0.125
0.125
0.125
0.125
0.125009
0.125
0.125
0.125
0.125
0.125002
0.147782
0.125
0.173364
0.125
0.12501
0.125639
0.125007
0.172311
0.155177
0.147171
0.125
0.125335
0.147509
0.125544
0.125
0.125
0.125
0.125
0.163097
0.125001
0.125
0.168531
0.125
0.125
0.125
0.130274
0.156641
0.148821
0.18008
0.125004
0.125
0.173824
0.155218
0.125
0.125
0.137163
0.125
0.16844
0.176854
0.125
0.125
0.125208
0.125
0.176825
0.132888
0.167114
0.173323
0.164091
0.151799
0.175058
0.14517
0.173326
0.237899
0.125003
0.125
0.166171
0.125
0.159313
0.175808
0.182492
0.125
0.172821
0.17758
0.125
0.141934
0.125
0.125
0.125
0.172061
0.125
0.13011
0.125
0.125001
0.173086
0.187338
0.125001
0.125
0.125
0.172571
0.16836
0.125003
0.18614
0.125
0.125
0.125
0.125
0.182776
0.164586
0.125
0.206264
0.125
0.144888
0.125
0.173985
0.125
0.135076
0.177379
0.12768
0.144023
0.129964
0.125
0.125619
0.125006
0.125776
0.125
0.125
0.133222
0.173425
0.125001
0.125
0.125001
0.125
0.173504
0.125
0.125001
0.125
0.125
0.125
0.125
0.130352
0.175155
0.187729
0.13543
0.125032
0.172401
0.125062
0.125001
0.125
0.130287
0.125044
0.125
0.125
0.125
0.125
0.125
0.125
0.160452
0.12686
0.125
0.125
0.165329
0.125
0.125
0.164789
0.16481
0.17575
0.125154
0.164981
0.125794
0.153065
0.174438
0.193086
0.125
0.125
0.135566
0.125
0.125
0.171505
0.125085
0.125017
0.126241
0.125
0.12521
0.125
0.129532
0.125048
0.169888
0.151054
0.173757
0.130076
0.125
0.125
0.1401
0.172983
0.125
0.125
0.177213
0.125
0.173231
0.125157
0.171686
0.125005
0.125
0.184743
0.125
0.125036
0.125
0.125
0.125436
0.125051
0.125
0.125
0.125
0.125
0.125393
0.125001
0.130875
0.125
0.1813
0.125
0.173372
0.125
0.125002
0.125003
0.125
0.125
0.125
0.125
0.125
0.125
0.159879
0.125
0.159792
0.125002
0.173588
0.125
0.145354
0.125017
0.187215
0.162726
0.184316
0.125
0.125
0.125
0.125015
0.267695
0.125
0.173834
0.14553
0.125038
0.125
0.185579
0.125
0.162195
0.125113
0.125
0.12504
0.173188
0.168334
0.125003
0.133146
0.125001
0.242727
0.125
0.125
0.173234
0.125
0.125056
0.125
0.184532
0.174639
0.125
0.125015
0.125
0.125
0.189011
0.125
0.173472
0.125333
0.169822
0.25959
0.125
0.135358
0.125004
0.125
0.125
0.125
0.125
0.125
0.174217
0.172541
0.125
0.125
0.175691
0.125
0.125
0.125
0.125
0.125
0.125
0.171626
0.125
0.125106
0.125
0.125
0.17728
0.173817
0.125
0.125
0.151348
0.125
0.125
0.125
0.125
0.17343
0.125
0.125001
0.125
0.125
0.125
0.125
0.173465
0.125003
0.172932
0.128435
0.1736
0.126954
0.125197
0.262105
0.125
0.125
0.125621
0.125
0.155934
0.172752
0.125
0.170409
0.12502
0.173188
0.125
0.125
0.186499
0.125
0.125
0.181069
0.125214
0.125
0.171165
0.125
0.125
0.125
0.125
0.175306
0.125
0.125172
0.173308
0.177582
0.125
0.125
0.177473
0.125
0.125
0.2639
0.125
0.125233
0.125
0.125001
0.189489
0.12548
0.125
0.125001
0.258228
0.257974
0.142711
0.170304
0.145624
0.125
0.125
0.125018
0.125001
0.128147
0.125
0.125
0.125552
0.145877
0.189835
0.125
0.173844
0.125
0.125
0.129796
0.125
0.170874
0.125009
0.125
0.174581
0.125
0.125178
0.255805
0.125
0.125
0.125
0.169847
0.166485
0.125353
0.125
0.125
0.159211
0.125117
0.125
0.125
0.125
0.125
0.125298
0.125
0.125
0.13105
0.268913
0.135941
0.125
0.125001
0.125
0.240173
0.125
0.125
0.169535
0.125006
0.184782
0.125003
0.125
0.125003
0.125
0.188068
0.125
0.125
0.125298
0.125
0.125
0.125
0.171872
0.16835
0.182915
0.125
0.125
0.125
0.125
0.125
0.173764
0.125
0.125
0.126599
0.125
0.202009
0.125019
0.125
0.125
0.169391
0.127113
0.125
0.17434
0.173041
0.129619
0.173721
0.176105
0.125
0.172006
0.125
0.125
0.125153
0.12768
0.125
0.172534
0.154234
0.15692
0.125
0.12535
0.170667
0.178695
0.125
0.125003