# vtk DataFile Version 3.0
Mesh from Gmsh, time = 1
ASCII
DATASET UNSTRUCTURED_GRID
POINTS 2063 double
0 0 0
4 0 0
4 2 0
0 2 0
1.75 1 0
1.5 1.25 0
1.25 1 0
1.5 0.75 0
0.146364 0 0
0.292727 0 0
0.439091 0 0
0.585455 0 0
0.731819 0 0
0.874308 0 0
1.00796 0 0
1.1346 0 0
1.25606 0 0
1.37406 0 0
1.49028 0 0
1.60637 0 0
1.72395 0 0
1.84471 0 0
1.97037 0 0
2.10271 0 0
2.24365 0 0
2.39 0 0
2.53636 0 0
2.68273 0 0
2.82909 0 0
2.97545 0 0
3.12182 0 0
3.26818 0 0
3.41455 0 0
3.56091 0 0
3.70727 0 0
3.85364 0 0
4 0.149227 0
4 0.298455 0
4 0.433632 0
4 0.530941 0
4 0.600143 0
4 0.651803 0
4 0.701545 0
4 0.751288 0
4 0.80103 0
4 0.850773 0
4 0.900515 0
4 0.950258 0
4 1 0
4 1.04974 0
4 1.09948 0
4 1.14923 0
4 1.19897 0
4 1.24871 0
4 1.29845 0
4 1.3482 0
4 1.39986 0
4 1.46906 0
4 1.56637 0
4 1.70155 0
4 1.85077 0
3.85364 2 0
3.70727 2 0
3.56091 2 0
3.41455 2 0
3.26818 2 0
3.12182 2 0
2.97545 2 0
2.82909 2 0
2.68273 2 0
2.53636 2 0
2.39 2 0
2.24365 2 0
2.10271 2 0
1.97037 2 0
1.84471 2 0
1.72395 2 0
1.60637 2 0
1.49028 2 0
1.37406 2 0
1.25606 2 0
1.1346 2 0
1.00796 2 0
0.874308 2 0
0.731819 2 0
0.585455 2 0
0.439091 2 0
0.292727 2 0
0.146364 2 0
0 1.85714 0
0 1.71429 0
0 1.57143 0
0 1.42857 0
0 1.28571 0
0 1.14286 0
0 1 0
0 0.857143 0
0 0.714286 0
0 0.571429 0
0 0.428571 0
0 0.285714 0
0 0.142857 0
1.7488 1.0245 0
1.7452 1.04877 0
1.73924 1.07257 0
1.73097 1.09567 0
1.72048 1.11785 0
1.70787 1.13889 0
1.69325 1.1586 0
1.67678 1.17678 0
1.6586 1.19325 0
1.63889 1.20787 0
1.61785 1.22048 0
1.59567 1.23097 0
1.57257 1.23924 0
1.54877 1.2452 0
1.5245 1.2488 0
1.4755 1.2488 0
1.45123 1.2452 0
1.42743 1.23924 0
1.40433 1.23097 0
1.38215 1.22048 0
1.36111 1.20787 0
1.3414 1.19325 0
1.32322 1.17678 0
1.30675 1.1586 0
1.29213 1.13889 0
1.27952 1.11785 0
1.26903 1.09567 0
1.26076 1.07257 0
1.2548 1.04877 0
1.2512 1.0245 0
1.2512 0.975496 0
1.2548 0.951227 0
1.26076 0.927429 0
1.26903 0.904329 0
1.27952 0.882151 0
1.29213 0.861107 0
1.30675 0.841402 0
1.32322 0.823223 0
1.3414 0.806747 0
1.36111 0.792133 0
1.38215 0.77952 0
1.40433 0.76903 0
1.42743 0.760765 0
1.45123 0.754804 0
1.4755 0.751204 0
1.5245 0.751204 0
1.54877 0.754804 0
1.57257 0.760765 0
1.59567 0.76903 0
1.61785 0.77952 0
1.63889 0.792133 0
1.6586 0.806747 0
1.67678 0.823223 0
1.69325 0.841402 0
1.70787 0.861107 0
1.72048 0.882151 0
1.73097 0.904329 0
1.73924 0.927429 0
1.7452 0.951227 0
1.7488 0.975496 0
2.68976 0.941551 0
2.26201 1.37405 0
2.22061 0.659179 0
3.29293 1.27361 0
1.89949 1.53515 0
3.38932 0.662932 0
1.87644 0.492426 0
2.11401 1.02615 0
0.633242 1.30862 0
0.720943 0.728017 0
1.03818 1.50954 0
1.52657 1.6215 0
1.52997 0.389931 0
1.187 0.488275 0
1.97903 0.783838 0
3.09472 0.927396 0
2.89613 1.29278 0
3.59642 1.01455 0
0.961174 1.19341 0
0.983279 0.923719 0
1.94084 1.21396 0
3.62782 1.3759 0
2.5778 1.24354 0
1.33168 1.47042 0
1.10201 0.706354 0
3.6969 0.723321 0
2.38919 0.913216 0
2.5792 0.59107 0
1.79534 1.33143 0
1.93479 0.972036 0
1.14306 1.26745 0
2.99739 0.502589 0
1.65758 0.567581 0
1.39014 0.558898 0
1.78891 0.684999 0
3.35292 0.93591 0
1.64104 1.39609 0
2.36031 1.14241 0
1.08227 1.06295 0
3.11339 1.61884 0
2.68578 1.6172 0
3.09349 1.16996 0
2.88959 1.06036 0
3.77091 1.1741 0
1.47949 1.40856 0
3.5976 0.367746 0
2.89154 0.831103 0
1.26354 0.678228 0
3.51088 1.20421 0
1.52504 0.620943 0
3.79257 0.914818 0
1.26638 1.30356 0
1.1244 0.864713 0
1.84913 0.834872 0
3.22667 0.781787 0
1.86798 1.08934 0
3.52568 0.830009 0
0.736398 1.04002 0
2.18059 0.333924 0
2.20147 0.859348 0
2.52967 1.05704 0
0.921609 0.512865 0
3.46352 1.36781 0
2.14123 1.21746 0
1.21005 0.782049 0
2.71738 1.13215 0
1.38057 1.33859 0
2.18302 1.67858 0
1.81047 1.18541 0
3.26206 1.09501 0
3.81574 1.35169 0
3.7638 1.5711 0
2.05606 1.42772 0
1.17214 1.15377 0
3.04615 0.764005 0
0.376513 0.895851 0
3.8087 0.561221 0
0.723528 1.64326 0
0.569586 0.362338 0
2.04369 0.590573 0
1.65051 0.677305 0
2.72756 1.28666 0
1.22169 1.71786 0
2.41739 1.30052 0
1.37742 0.665567 0
1.14951 0.982781 0
1.67725 1.3005 0
0.365969 1.53545 0
2.27125 1.00014 0
3.45245 1.05746 0
3.84563 0.769774 0
1.55197 1.34147 0
3.56352 0.680293 0
2.43414 1.55621 0
2.32804 0.776117 0
2.54305 0.906766 0
1.30971 0.261053 0
1.75762 0.254499 0
1.84232 0.949222 0
3.85031 1.05135 0
2.05539 0.896565 0
0.860589 1.40202 0
1.75531 1.74558 0
1.75102 0.773698 0
0.34274 1.21518 0
1.25153 1.22616 0
0.912738 0.736222 0
1.02732 0.273449 0
2.09711 0.741735 0
2.00889 1.08533 0
3.66297 0.861976 0
3.63061 1.15057 0
2.46315 0.801353 0
3.28438 0.380979 0
3.02521 1.05313 0
3.22741 0.963682 0
1.1593 1.41485 0
2.96018 1.17447 0
3.03246 1.2909 0
3.16786 1.28202 0
3.35576 0.793688 0
1.27853 0.760202 0
1.20621 0.857668 0
1.71431 1.57022 0
3.37675 1.16639 0
1.18352 1.07939 0
2.82268 0.948363 0
1.45093 1.32217 0
1.58595 0.688296 0
1.74033 1.21782 0
2.82864 1.18078 0
2.26639 1.23357 0
1.45041 0.680131 0
3.48533 1.71604 0
2.96809 0.935474 0
0.9537 1.7544 0
3.72691 1.05125 0
2.75947 0.838092 0
2.61672 0.768034 0
2.76565 0.64499 0
2.91733 0.691331 0
2.72752 0.318069 0
1.00533 1.34357 0
2.41293 1.02845 0
3.22929 0.575665 0
2.21571 1.11927 0
0.94219 1.04786 0
3.87313 1.23592 0
1.60757 1.30134 0
1.81874 1.01566 0
1.80338 0.8933 0
2.4822 1.17301 0
2.35566 0.503981 0
1.69026 0.743877 0
0.329996 0.578694 0
3.47348 0.938716 0
3.14591 1.05978 0
1.33322 1.27593 0
2.96081 1.47999 0
3.25506 1.46524 0
1.94125 1.36391 0
2.0402 1.29169 0
1.57525 1.50332 0
3.69767 1.25317 0
1.75683 1.44818 0
1.80083 1.1064 0
0.809681 0.87423 0
2.61055 1.44265 0
1.37047 1.62887 0
1.96222 1.71946 0
1.91636 0.650421 0
1.19655 0.92399 0
1.33918 0.731683 0
1.515 0.694369 0
0.77536 0.294365 0
1.05831 1.17202 0
1.95976 0.310934 0
1.69007 0.405977 0
1.76656 0.840229 0
1.20113 1.5671 0
2.80987 0.737943 0
3.46204 0.485136 0
1.32058 0.3951 0
1.46178 1.80595 0
3.89108 0.870761 0
2.60685 1.13937 0
3.41372 1.26688 0
1.9446 0.870798 0
1.06625 0.563984 0
1.43287 1.53846 0
2.63803 1.03416 0
1.01334 0.789025 0
3.12874 0.831843 0
3.57274 1.28605 0
1.56978 0.188817 0
0.784518 1.19935 0
3.89242 0.671623 0
3.23037 1.19627 0
1.77759 0.562779 0
1.8682 0.738499 0
1.48911 0.497962 0
1.23353 1.15971 0
2.75061 1.02754 0
3.79292 0.673099 0
2.1725 0.505649 0
1.86597 1.26131 0
2.71121 0.715281 0
2.36442 0.62418 0
1.16347 0.603576 0
0.535584 1.12503 0
1.2686 0.560984 0
3.27119 0.883165 0
0.278182 0.309814 0
3.35006 1.03977 0
3.68927 0.957943 0
2.18613 0.959579 0
2.28715 0.911028 0
3.30188 0.71863 0
3.75486 0.819582 0
3.52868 1.10801 0
3.44787 0.764426 0
2.18817 1.51149 0
3.60459 0.760447 0
3.56822 0.917725 0
2.04397 1.17699 0
3.89917 1.13467 0
0.637506 0.869736 0
3.88997 1.42379 0
2.23125 0.767052 0
3.02885 0.85771 0
1.25562 0.818754 0
2.63005 0.862723 0
2.66168 1.20817 0
0.500609 1.74809 0
2.80789 1.43571 0
3.91112 0.968056 0
3.06198 0.273506 0
1.20129 1.01601 0
1.84531 1.41557 0
1.68224 1.24327 0
2.15548 1.34077 0
0.882998 1.56714 0
1.39728 1.28657 0
0.571726 1.49715 0
2.03509 0.993924 0
1.63797 0.727438 0
0.49831 0.725817 0
1.07252 0.938175 0
1.76211 1.15632 0
2.11818 1.11863 0
1.31831 1.38515 0
1.51374 1.30079 0
3.80377 0.388577 0
0.703287 0.51087 0
1.3954 0.714519 0
2.04731 1.57379 0
3.43788 0.848522 0
2.95214 0.770551 0
0.235059 1.75954 0
3.1451 0.744535 0
2.02177 0.442894 0
3.91148 1.32333 0
2.46697 0.957492 0
2.91691 1.75563 0
2.37433 0.223671 0
1.07709 1.6277 0
3.2136 0.689844 0
1.20617 0.353637 0
3.73029 1.33472 0
1.06588 0.419959 0
2.64384 1.30103 0
1.59406 0.475919 0
3.78738 1.26577 0
1.59526 0.613003 0
1.87806 1.16955 0
2.35044 1.22951 0
1.39963 1.417 0
2.8118 1.10536 0
3.66188 0.581995 0
2.3844 1.43337 0
1.72039 1.36988 0
1.44411 0.605107 0
3.10693 1.4202 0
3.57538 1.54011 0
2.54757 0.816456 0
2.52966 0.715621 0
1.60156 1.74734 0
1.72394 0.627613 0
2.12296 0.843863 0
2.37898 1.77976 0
1.30318 1.21967 0
0.997017 0.665996 0
2.81443 1.26578 0
1.12858 0.787419 0
3.68547 1.76965 0
1.05883 1.25891 0
3.49634 1.29063 0
1.56127 1.41897 0
1.18784 0.700908 0
1.79549 0.959477 0
2.75876 1.20188 0
2.60702 0.955246 0
0.473036 1.34333 0
2.48955 1.2582 0
0.206605 1.04069 0
1.19616 1.33865 0
3.44183 0.217577 0
1.41993 0.319904 0
2.33391 1.31363 0
3.51887 1.00785 0
3.78317 0.998778 0
1.17123 0.19319 0
2.28952 1.09214 0
2.12376 0.642692 0
2.02735 0.693646 0
3.27513 1.77186 0
3.16852 1.13296 0
0.211109 1.3857 0
1.09756 1.34296 0
1.88613 1.02637 0
1.81276 0.377198 0
0.730563 1.48739 0
1.02034 1.00668 0
3.45413 1.14037 0
2.34646 0.9792 0
1.79363 1.24993 0
1.74128 1.28143 0
2.38153 0.83436 0
0.820718 0.62368 0
2.46509 0.87535 0
1.71852 0.801942 0
3.18904 0.890825 0
2.19223 1.04341 0
1.66962 1.4722 0
1.2208 1.1155 0
1.84072 0.618908 0
1.31192 0.625727 0
1.81262 1.63378 0
1.14483 1.03877 0
0.209036 0.767581 0
1.24437 1.45337 0
2.99672 0.708718 0
3.0773 0.695727 0
1.78831 1.06011 0
1.49471 1.34907 0
1.42869 0.177597 0
2.28606 0.830734 0
0.875181 0.974811 0
0.908539 1.29031 0
0.925843 0.839539 0
0.855361 1.11916 0
1.12478 1.11263 0
2.89366 0.981249 0
3.92059 0.798877 0
2.69305 0.801003 0
3.412 0.989058 0
1.63767 1.26075 0
1.55951 1.2918 0
1.1347 0.923126 0
2.04412 0.811674 0
1.19831 1.20574 0
2.22064 1.29754 0
1.88539 0.157931 0
1.80939 0.794031 0
3.0259 1.13178 0
3.09786 1.24694 0
2.96371 1.25301 0
2.96974 1.3251 0
1.86524 0.890666 0
3.79012 1.09813 0
2.42803 1.10813 0
1.55659 0.544433 0
1.31021 1.85133 0
3.52597 0.750237 0
3.4727 0.687338 0
1.20521 0.969553 0
2.28223 0.70295 0
3.62373 0.69101 0
3.10226 1.32724 0
3.04364 1.37645 0
3.02894 1.21069 0
0.790726 1.82144 0
1.40638 0.463583 0
1.63051 0.303937 0
3.71053 0.201306 0
1.01418 1.1029 0
2.09881 0.957551 0
2.87735 0.550133 0
2.08495 0.171533 0
1.71476 0.689484 0
1.93326 1.11366 0
2.95805 1.09437 0
3.71167 1.12686 0
3.64931 1.07512 0
3.29047 0.994549 0
1.10171 1.84029 0
1.98644 1.44801 0
0.928408 0.368216 0
2.84364 0.667225 0
2.8922 1.13641 0
3.30647 1.19754 0
3.9284 1.05426 0
1.21084 1.2693 0
1.71925 0.490945 0
3.58311 1.20418 0
3.08786 1.01658 0
2.89229 1.21998 0
3.3905 1.5561 0
2.70141 0.468608 0
1.04885 0.869114 0
1.96533 1.28493 0
2.82617 1.02273 0
2.95917 1.01464 0
2.59383 1.80091 0
[...]
CELL_DATA 3964
SCALARS process_rank int 1
LOOKUP_TABLE default
0
0
0
0
0
0
0
0
0
0
0
0
0
0
0
0
0
0
0
0
0
0
0
0
0
0
0
0
0
0
0
0
0
0
0
0
0
0
0
0
0
0
0
0
0
0
0
0
0
0
0
0
0
0
0
0
0
0
0
0
0
0
0
0
0
0
0
0
0
0
0
0
0
0
0
0
0
0
0
0
0
0
0
0
0
0
0
0
0
0
0
0
0
0
0
0
0
0
0
0
0
0
0
0
0
0
0
0
0
0
0
0
0
0
0
0
0
0
0
0
0
0
0
0
0
0
0
0
0
0
0
0
0
0
0
0
0
0
0
0
0
0
0
0
0
0
0
0
0
0
0
0
0
0
0
0
0
0
0
0
0
0
0
0
0
0
0
0
0
0
0
0
0
0
0
0
0
0
0
0
0
0
0
0
0
0
0
0
0
0
0
0
0
0
0
0
0
0
0
0
0
0
0
0
0
0
0
0
0
0
0
0
0
0
0
0
0
0
0
0
0
0
0
0
0
0
0
0
0
0
0
0
0
0
0
0
0
0
0
0
0
0
0
0
0
0
0
0
0
0
0
0
0
0
0
0
0
0
0
0
0
0
0
0
0
0
0
0
0
0
0
0
0
0
0
0
0
0
0
0
0
0
0
0
0
0
0
0
0
0
0
0
0
0
0
0
0
0
0
0
0
0
0
0
0
0
0
0
0
0
0
0
0
0
0
0
0
0
0
0
0
0
0
0
0
0
0
0
0
0
0
0
0
0
0
0
0
0
0
0
0
0
0
0
0
0
0
0
0
0
0
0
0
0
0
0
0
0
0
0
0
0
0
0
0
0
0
0
0
0
0
0
0
0
0
0
0
0
0
0
0
0
0
0
0
0
0
0
0
0
0
0
0
0
0
0
0
0
0
0
0
0
0
0
0
0
0
0
0
0
0
0
0
0
0
0
0
0
0
0
0
0
0
0
0
0
0
0
0
0
0
0
0
0
0
0
0
0
0
0
0
0
0
0
0
0
0
0
0
0
0
0
0
0
0
0
0
0
0
0
0
0
0
0
0
0
0
0
0
0
0
0
0
0
0
0
0
0
0
0
0
0
0
0
0
0
0
0
0
0
0
0
0
0
0
0
0
0
0
0
0
0
0
0
0
0
0
0
0
0
0
0
0
0
0
0
0
0
0
0
0
0
0
0
0
0
0
0
0
0
0
0
0
0
0
0
0
0
0
0
0
0
0
0
0
0
0
0
0
0
0
0
0
0
0
0
0
0
0
0
0
0
0
0
0
0
0
0
0
0
0
0
0
0
0
0
0
0
0
0
0
0
0
0
0
0
0
0
0
0
0
0
0
0
0
0
0
0
0
0
0
0
0
0
0
0
0
0
0
0
0
0
0
0
0
0
0
0
0
0
0
0
0
0
0
0
0
0
0
0
0
0
0
0
0
0
0
0
0
0
0
0
0
0
0
0
0
0
0
0
0
0
0
0
0
0
0
0
0
0
0
0
0
0
0
0
0
0
0
0
0
0
0
0
0
0
0
0
0
0
0
0
0
0
0
0
0
0
0
0
0
0
0
0
0
0
0
0
0
0
0
0
0
0
0
0
0
0
0
0
0
0
0
0
0
0
0
0
0
0
0
0
0
0
0
0
0
0
0
0
0
0
0
0
0
0
0
0
0
0
0
0
0
0
0
0
0
0
0
0
0
0
0
0
0
0
0
0
0
0
0
0
0
0
0
0
0
0
0
0
0
0
0
0
0
0
0
0
0
0
0
0
0
0
0
0
0
0
0
0
0
0
0
0
0
0
0
0
0
0
0
0
0
0
0
0
0
0
0
0
0
0
0
0
0
0
0
0
0
0
0
0
0
0
0
0
0
0
0
0
0
0
0
0
0
0
0
0
0
0
0
0
0
0
0
0
0
0
0
0
0
0
0
0
0
0
0
0
0
0
0
0
0
0
0
0
0
0
0
0
0
0
0
0
0
0
0
0
0
0
0
0
0
0
0
0
0
0
0
0
0
0
0
0
0
0
0
0
0
0
0
0
0
0
0
0
0
0
0
0
0
0
0
0
0
0
0
0
0
0
0
0
0
0
0
0
0
0
0
0
0
0
0
0
0
0
0
0
0
0
0
0
0
0
0
0
0
0
0
0
0
0
0
0
0
0
0
0
0
0
0
0
0
0
0
0
0
0
0
0
0
0
0
0
0
0
0
0
0
0
0
0
0
0
0
0
0
0
0
0
0
0
0
0
0
0
0
0
0
0
0
0
0
0
0
0
0
0
0
0
0
0
0
0
0
0
0
0
0
0
0
0
0
0
0
0
0
0
0
0
0
0
0
0
0
0
0
0
0
0
0
0
0
0
0
0
0
0
0
0
0
0
0
0
0
0
0
0
0
0
0
0
0
0
0
0
0
0
0
0
0
0
0
0
0
0
0
0
0
0
0
0
0
0
0
0
0
0
0
0
0
0
0
0
0
0
0
0
0
0
0
0
0
0
0
0
0
0
0
0
0
0
0
0
0
0
0
0
0
0
0
0
0
0
0
0
0
0
0
0
0
0
0
0
0
0
0
0
0
0
0
0
0
0
0
0
0
0
0
0
0
0
0
0
0
0
0
0
0
0
0
0
0
0
0
0
0
0
0
0
0
0
0
0
0
0
0
0
0
0
0
0
0
0
0
0
0
0
0
0
0
0
0
0
0
0
0
0
0
0
0
0
0
0
0
0
0
0
0
0
0
0
0
0
0
0
0
0
0
0
0
0
0
0
0
0
0
0
0
0
0
0
0
0
0
0
0
0
0
0
0
0
0
0
0
0
0
0
0
0
0
0
0
0
0
0
0
0
0
0
0
0
0
0
0
0
0
0
0
0
0
0
0
0
0
0
0
0
0
0
0
0
0
0
0
0
0
0
0
0
0
0
0
0
0
0
0
0
0
0
0
0
0
0
0
0
0
0
0
0
0
0
0
0
0
0
0
0
0
0
0
0
0
0
0
0
0
0
0
0
0
0
0
0
0
0
0
0
0
0
0
0
0
0
0
0
0
0
0
0
0
0
0
0
0
0
0
0
0
0
0
0
0
0
0
0
0
0
0
0
0
0
0
0
0
0
0
0
0
0
0
0
0
0
0
0
0
0
0
0
0
0
0
0
0
0
0
0
0
0
0
0
0
0
0
0
0
0
0
0
0
0
0
0
0
0
0
0
0
0
0
0
0
0
0
0
0
0
0
0
0
0
0
0
0
0
0
0
0
0
0
0
0
0
0
0
0
0
0
0
0
0
0
0
0
0
0
0
0
0
0
0
0
0
0
0
0
0
0
0
0
0
0
0
0
0
0
0
0
0
0
0
0
0
0
0
0
0
0
0
0
0
0
0
0
0
0
0
0
0
0
0
0
0
0
0
0
0
0
0
0
0
0
0
0
0
0
0
0
0
0
0
0
0
0
0
0
0
0
0
0
0
0
0
0
0
0
0
0
0
0
0
0
0
0
0
0
0
0
0
0
0
0
0
0
0
0
0
0
0
0
0
0
0
0
0
0
0
0
0
0
0
0
0
0
0
0
0
0
0
0
0
0
0
0
0
0
0
0
0
0
0
0
0
0
0
0
0
0
0
0
0
0
0
0
0
0
0
0
0
0
0
0
0
0
0
0
0
0
0
0
0
0
0
0
0
0
0
0
0
0
0
0
0
0
0
0
0
0
0
0
0
0
0
0
0
0
0
0
0
0
0
0
0
0
0
0
0
0
0
0
0
0
0
0
0
0
0
0
0
0
0
0
0
0
0
0
0
0
0
0
0
0
0
0
0
0
0
0
0
0
0
0
0
0
0
0
0
0
0
0
0
0
0
0
0
0
0
0
0
0
0
0
0
0
0
0
0
0
0
0
0
0
0
0
0
0
0
0
0
0
0
0
0
0
0
0
0
0
0
0
0
0
0
0
0
0
0
0
0
0
0
0
0
0
0
0
0
0
0
0
0
0
0
0
0
0
0
0
0
0
0
0
0
0
0
0
0
0
0
0
0
0
0
0
0
0
0
0
0
0
0
0
0
0
0
0
0
0
0
0
0
0
0
0
0
0
0
0
0
0
0
0
0
0
0
0
0
0
0
0
0
0
0
0
0
0
0
0
0
0
0
0
0
0
0
0
0
0
0
0
0
0
0
0
0
0
0
0
0
0
0
0
0
0
0
0
0
0
0
0
0
0
0
0
0
0
0
0
0
0
0
0
0
0
0
0
0
0
0
0
0
0
0
0
0
0
0
0
0
0
0
0
0
0
0
0
0
0
0
0
0
0
0
0
0
0
0
0
0
0
0
0
0
0
0
0
0
0
0
0
0
0
0
0
0
0
0
0
0
0
0
0
0
0
0
0
0
0
0
0
0
0
0
0
0
0
0
0
0
0
0
0
0
0
0
0
0
0
0
0
0
0
0
0
0
0
0
0
0
0
0
0
0
0
0
0
0
0
0
0
0
0
0
0
0
0
0
0
0
0
0
0
0
0
0
0
0
0
0
0
0
0
0
0
0
0
0
0
0
0
0
0
0
0
0
0
0
0
0
0
0
0
0
0
0
0
0
0
0
0
0
0
0
0
0
0
0
0
0
0
0
0
0
0
0
0
0
0
0
0
0
0
0
0
0
0
0
0
0
0
0
0
0
0
0
0
0
0
0
0
0
0
0
0
0
0
0
0
0
0
0
0
0
0
0
0
0
0
0
0
0
0
0
0
0
0
0
0
0
0
0
0
0
0
0
0
0
0
0
0
0
0
0
0
0
0
0
0
0
0
0
0
0
0
0
0
0
0
0
0
0
0
0
0
0
0
0
0
0
0
0
0
0
0
0
0
0
0
0
0
0
0
0
0
0
0
0
0
0
0
0
0
0
0
0
0
0
0
0
0
0
0
0
0
0
0
0
0
0
0
0
0
0
0
0
0
0
0
0
0
0
0
0
0
0
0
0
0
0
0
0
0
0
0
0
0
0
0
0
0
0
0
0
0
0
0
0
0
0
0
0
0
0
0
0
0
0
0
0
0
0
0
0
0
0
0
0
0
0
0
0
0
0
0
0
0
0
0
0
0
0
0
0
0
0
0
0
0
0
0
0
0
0
0
0
0
0
0
0
0
0
0
0
0
0
0
0
0
0
0
0
0
0
0
0
0
0
0
0
0
0
0
0
0
0
0
0
0
0
0
0
0
0
0
0
0
0
0
0
0
0
0
0
0
0
0
0
0
0
0
0
0
0
0
0
0
0
0
0
0
0
0
0
0
0
0
0
0
0
0
0
0
0
0
0
0
0
0
0
0
0
0
0
0
0
0
0
0
0
0
0
0
0
0
0
0
0
0
0
0
0
0
0
0
0
0
0
0
0
0
0
0
0
0
0
0
0
0
0
0
0
0
0
0
0
0
0
0
0
0
0
0
0
0
0
0
0
0
0
0
0
0
0
0
0
0
0
0
0
0
0
0
0
0
0
0
0
0
0
0
0
0
0
0
0
0
0
0
0
0
0
0
0
0
0
0
0
0
0
0
0
0
0
0
0
0
0
0
0
0
0
0
0
0
0
0
0
0
0
0
0
0
0
0
0
0
0
0
0
0
0
0
0
0
0
0
0
0
0
0
0
0
0
0
0
0
0
0
0
0
0
0
0
0
0
0
0
0
0
0
0
0
0
0
0
0
0
0
0
0
0
0
0
0
0
0
0
0
0
0
0
0
0
0
0
0
0
0
0
0
0
0
0
0
0
0
0
0
0
0
0
0
0
0
0
0
0
0
0
0
0
0
0
0
0
0
0
0
0
0
0
0
0
0
0
0
0
0
0
0
0
0
0
0
0
0
0
0
0
0
0
0
0
0
0
0
0
0
0
0
0
0
0
0
0
0
0
0
0
0
0
0
0
0
0
0
0
0
0
0
0
0
0
0
0
0
0
0
0
0
0
0
0
0
0
0
0
0
0
0
0
0
0
0
0
0
0
0
0
0
0
0
0
0
0
0
0
0
0
0
0
0
0
0
0
0
0
0
0
0
0
0
0
0
0
0
0
0
0
0
0
0
0
0
0
0
0
0
0
0
0
0
0
0
0
0
0
0
0
0
0
0
0
0
0
0
0
0
0
0
0
0
0
0
0
0
0
0
0
0
0
0
0
0
0
0
0
0
0
0
0
0
0
0
0
0
0
0
0
0
0
0
0
0
0
0
0
0
0
0
0
0
0
0
0
0
0
0
0
0
0
0
0
0
0
0
0
0
0
0
0
0
0
0
0
0
0
0
0
0
0
0
0
0
0
0
0
0
0
0
0
0
0
0
0
0
0
0
0
0
0
0
0
0
0
0
0
0
0
0
0
0
0
0
0
0
0
0
0
0
0
0
0
0
0
0
0
0
0
0
0
0
0
0
0
0
0
0
0
0
0
0
0
0
0
0
0
0
0
0
0
0
0
0
0
0
0
0
0
0
0
0
0
0
0
0
0
0
0
0
0
0
0
0
0
0
0
0
0
0
0
0
0
0
0
0
0
0
0
0
0
0
0
0
0
0
0
0
0
0
0
0
0
0
0
0
0
0
0
0
0
0
0
0
0
0
0
0
0
0
0
0
0
0
0
0
0
0
0
0
0
0
0
0
0
0
0
0
0
0
0
0
0
0
0
0
0
0
0
0
0
0
0
0
0
0
0
0
0
0
0
0
0
0
0
0
0
0
0
0
0
0
0
0
0
0
0
0
0
0
0
0
0
0
0
0
0
0
0
0
0
0
0
0
0
0
0
0
0
0
0
0
0
0
0
0
0
0
0
0
0
0
0
0
0
0
0
0
0
0
0
0
0
0
0
0
0
0
0
0
0
0
0
0
0
0
0
0
0
0
0
0
0
0
0
0
0
0
0
0
0
0
0
0
0
0
0
0
0
0
0
0
0
0
0
0
0
0
0
0
0
0
0
0
0
0
0
0
0
0
0
0
0
0
0
0
0
0
0
0
0
0
0
0
0
0
0
0
0
0
0
0
0
0
0
0
0
0
0
0
0
0
0
0
0
0
0
0
0
0
0
0
0
0
0
0
0
0
0
0
0
0
0
0
0
0
0
0
0
0
0
0
0
0
0
0
0
0
0
0
0
0
0
0
0
0
0
0
0
0
0
0
0
0
0
0
0
0
0
0
0
0
0
0
0
0
0
0
0
0
0
0
0
0
0
0
0
0
0
0
0
0
0
0
0
0
0
0
0
0
0
0
0
0
0
0
0
0
0
0
0
0
0
0
0
0
0
0
0
0
0
0
0
0
0
0
0
0
0
0
0
0
0
0
0
0
0
0
0
0
0
0
0
0
0
0
0
0
0
0
0
0
0
0
0
0
0
0
0
0
0
0
0
0
0
0
0
0
0
0
0
0
0
0
0
0
0
0
0
0
0
0
0
0
0
0
0
0
0
0
0
0
0
0
0
0
0
0
0
0
0
0
0
0
0
0
0
0
0
0
0
0
0
0
0
0
0
0
0
0
0
0
0
0
0
0
0
0
0
0
0
0
0
0
0
0
0
0
0
0
0
0
0
0
0
0
0
0
0
0
0
0
0
0
0
0
0
0
0
0
0
0
0
0
0
0
0
0
0
0
0
0
0
0
0
0
0
0
0
0
0
0
0
0
0
0
0
0
0
0
0
0
0
0
0
0
0
0
0
0
0
0
0
0
0
0
0
0
0
0
0
0
0
0
0
0
0
0
0
0
0
0
0
0
0
0
0
0
0
0
0
0
0
0
0
0
0
0
0
0
0
0
0
0
0
0
0
0
0
0
0
0
0
0
0
0
0
0
0
0
0
0
0
0
0
0
0
0
0
0
0
0
0
0
0
0
0
0
0
0
0
0
0
0
0
0
0
0
0
0
0
0
0
0
0
0
0
0
0
0
0
0
0
0
0
0
0
0
0
0
0
0
0
0
0
0
0
0
0
0
0
0
0
0
0
0
0
0
0
0
0
0
0
0
0
0
0
0
0
0
0
0
0
0
0
0
0
0
0
0
0
0
0
0
0
0
0
0
0
0
0
0
0
0
0
0
0
0
0
0
0
0
0
0
0
0
0
0
0
0
0
0
0
0
0
0
0
0
0
0
0
0
0
0
0
0
0
0
0
0
0
0
0
0
0
0
0
0
0
0
0
0
0
0
0
0
0
0
0
0
0
0
0
0
0
0
0
0
0
0
0
0
0
0
0
0
0
0
0
0
0
0
0
0
0
0
0
0
0
0
0
0
0
0
0
0
0
0
0
0
0
0
0
0
0
0
0
0
0
0
0
0
0
0
0
0
0
0
0
0
0
0
0
0
0
0
0
0
0
0
0
0
0
0
0
0
0
0
0
0
0
0
0
0
0
0
0
0
0
0
0
0
0
0
0
0
0
0
0
0
0
0
0
0
0
0
0
0
0
0
0
0
0
0
0
0
0
0
0
0
0
0
0
0
0
0
0
0
0
0
0
0
0
0
0
0
0
0
0
0
0
0
0
0
0
0
0
0
0
0
0
0
0
0
0
0
0
0
0
0
0
0
0
0
0
0
0
0
0
0
0
0
0
0
0
0
0
0
0
0
0
0
0
0
0
0
0
0
0
0
0
0
0
0
0
0
0
0
0
0
0
0
0
0
0
0
0
0
0
0
0
0
0
0
0
0
0
0
0
0
0
0
0
0
0
0
0
0
0
0
0
0
0
0
0
0
0
0
0
0
0
0
0
0
0
0
0
0
0
0
0
0
0
0
0
0
0
0
0
0
0
0
0
0
0
0
0
0
0
0
0
0
0
0
0
0
0
0
0
0
0
0
0
0
0
0
0
0
0
0
0
0
0
0
0
0
0
0
0
0
0
0
0
0
0
0
0
0
0
0
0
0
0
0
0
0
0
0
0
0
0
0
0
0
0
0
0
0
0
0
0
0
0
0
0
0
0
0
0
0
0
0
0
SCALARS density double 1
LOOKUP_TABLE default
0.125
0.164201
0.125
0.125
0.129522
0.125
0.125013
0.15117
0.208294
0.141538
0.125
0.125
0.125
0.125
0.125038
0.131696
0.257676
0.212761
0.173043
0.125
0.133076
0.131518
0.125
0.125
0.125002
0.125
0.169699
0.125
0.125
0.125
0.125
0.26817
0.125054
0.125059
0.125
0.125
0.125
0.125
0.125
0.125072
0.125
0.173508
0.125
0.125
0.126909
0.125
0.125
0.125
0.125
0.125
0.125
0.125
0.125
0.125
0.268058
0.125
0.125
0.125
0.172409
0.198808
0.268906
0.125
0.125
0.125
0.125
0.125
0.125
0.125
0.125
0.125
0.125
0.125
0.174095
0.125
0.161304
0.125
0.125
0.125
0.125
0.125
0.125
0.125
0.264253
0.140028
0.125915
0.125
0.125
0.125
0.160955
0.173531
0.173589
0.125
0.125
0.125
0.125
0.125
0.125
0.125
0.224806
0.167561
0.125
0.125
0.191384
0.125
0.125
0.125
0.125
0.125004
0.125
0.125
0.125
0.125
0.125
0.164361
0.125
0.191296
0.265167
0.125
0.17336
0.125002
0.125
0.173045
0.174534
0.125
0.159092
0.125
0.131582
0.125
0.156161
0.164831
0.17319
0.125
0.125
0.127794
0.125002
0.125
0.125
0.125
0.125
0.125
0.125
0.164174
0.125
0.125
0.241954
0.134975
0.151138
0.166026
0.168445
0.125
0.125
0.125
0.125087
0.17335
0.22036
0.125
0.155769
0.125
0.144817
0.125
0.125001
0.125
0.125001
0.125
0.169809
0.125
0.250126
0.125
0.172289
0.173096
0.173731
0.127248
0.125
0.125
0.148687
0.171469
0.132748
0.125
0.263418
0.173694
0.125
0.125
0.125
0.130843
0.125
0.125
0.125001
0.125
0.125
0.149773
0.125
0.125
0.156185
0.125
0.125
0.125
0.17339
0.151351
0.125
0.12699
0.192139
0.125
0.173419
0.125
0.125
0.173392
0.132696
0.173856
0.127857
0.125146
0.185589
0.125002
0.125001
0.163148
0.127044
0.125
0.125013
0.265379
0.147088
0.125
0.125
0.125
0.125027
0.172873
0.125
0.125011
0.125
0.125
0.172596
0.265422
0.200932
0.125
0.125
0.150976
0.125
0.125
0.125
0.126461
0.125
0.133383
0.158966
0.15907
0.137219
0.125
0.125
0.125001
0.125805
0.125
0.126245
0.125
0.125
0.125098
0.173316
0.125
0.169673
0.125
0.125
0.174069
0.125
0.125
0.125
0.125
0.132049
0.152007
0.125
0.12988
0.128677
0.187458
0.125
0.125
0.125
0.125
0.125
0.125001
0.172853
0.126914
0.172429
0.125
0.147199
0.125034
0.125
0.125025
0.134564
0.154037
0.140123
0.151141
0.125
0.125
0.156525
0.14631
0.125
0.212823
0.126055
0.128975
0.173431
0.202467
0.176896
0.125
0.235697
0.154245
0.125
0.170535
0.158013
0.125
0.125
0.125
0.125
0.226401
0.125
0.174003
0.125
0.125
0.125
0.133135
0.185371
0.125
0.200185
0.125
0.125
0.228791
0.125
0.125006
0.256742
0.125021
0.125
0.125
0.125
0.173751
0.151658
0.154351
0.125
0.125
0.179569
0.182666
0.125
0.125
0.125
0.125
0.125
0.125
0.147467
0.125
0.125
0.145375
0.153028
0.125
0.172701
0.18199
0.125
0.133879
0.125
0.125
0.251571
0.125
0.12833
0.125
0.172656
0.125
0.22769
0.125
0.125039
0.125
0.125
0.131437
0.125
0.125
0.125004
0.125
0.125
0.125
0.125
0.173742
0.125
0.16152
0.243505
0.158217
0.125
0.125001
0.125
0.125079
0.125
0.125
0.177586
0.125
0.125
0.172484
0.125
0.125
0.125
0.170914
0.125
0.125
0.125
0.125
0.125
0.125
0.173449
0.140544
0.125
0.125
0.125
0.125
0.125
0.182224
0.125001
0.125
0.125
0.265665
0.17351
0.125
0.129377
0.125024
0.125
0.125003
0.168076
0.178576
0.255965
0.125
0.125
0.125
0.161681
0.258399
0.125
0.125
0.125
0.125
0.147084
0.126887
0.125
0.125
0.157272
0.128439
0.125
0.169215
0.125
0.199914
0.173125
0.125
0.245252
0.125018
0.125
0.173495
0.125
0.153214
0.164004
0.125
0.128825
0.125
0.125
0.125954
0.258247
0.130918
0.166375
0.125
0.129046
0.142213
0.125002
0.125
0.168154
0.17706
0.18798
0.166089
0.180219
0.125974
0.125
0.126739
0.125
0.171227
0.129567
0.174798
0.174198
0.125
0.174778
0.125
0.125
0.26821
0.125
0.125
0.189354
0.125
0.125
0.125
0.125002
0.138485
0.172588
0.165936
0.125
0.125
0.155414
0.125
0.142063
0.125004
0.167417
0.266203
0.172664
0.125
0.125
0.125
0.12644
0.125
0.125
0.125
0.173312
0.173874
0.125
0.125
0.125
0.125
0.125
0.125
0.125
0.125012
0.126448
0.125
0.125
0.125
0.125
0.125
0.125
0.125038
0.125
0.125
0.125
0.173401
0.136638
0.125
0.169036
0.130137
0.172572
0.125
0.156284
0.163044
0.125
0.125
0.125
0.125003
0.125031
0.125004
0.125
0.125
0.125
0.173384
0.125
0.125114
0.125
0.125
0.125
0.125
0.125062
0.125
0.125
0.125
0.125
0.125
0.125
0.125
0.125
0.125
0.246345
0.125
0.18888
0.125
0.125
0.125009
0.125
0.139787
0.125006
0.125
0.125001
0.187952
0.125002
0.125
0.125002
0.125002
0.125
0.125
0.125104
0.125
0.126688
0.173378
0.133259
0.174173
0.125018
0.125105
0.125
0.144397
0.125089
0.184087
0.125
0.140358
0.140382
0.125
0.172118
0.174137
0.125
0.125
0.125
0.125094
0.125521
0.125
0.137378
0.125684
0.125
0.17393
0.125
0.125
0.171109
0.125
0.173901
0.1764
0.156593
0.125
0.125
0.125
0.173571
0.125
0.125
0.125
0.125016
0.125
0.180172
0.168711
0.125013
0.125
0.125
0.125
0.125
0.12515
0.125
0.125
0.169757
0.125036
0.125
0.125
0.18645
0.125
0.125
0.268526
0.176668
0.125
0.125
0.125
0.125054
0.125
0.125
0.173807
0.125
0.125347
0.125
0.125
0.158857
0.128707
0.125289
0.125
0.125
0.125
0.137306
0.125
0.158245
0.125
0.126392
0.167035
0.174302
0.125
0.133098
0.125
0.15985
0.148581
0.133056
0.125117
0.125
0.125
0.125
0.125
0.172571
0.125
0.174396
0.173246
0.125
0.167337
0.125
0.125006
0.125
0.125
0.125
0.125
0.125
0.180234
0.125
0.125
0.173308
0.125
0.125
0.125
0.125
0.125035
0.125
0.173315
0.174238
0.137402
0.172261
0.125
0.174911
0.125
0.125
0.125238
0.125
0.125
0.180365
0.125
0.125029
0.217636
0.125
0.178854
0.172245
0.125
0.181069
0.166744
0.125104
0.179806
0.135828
0.125
0.125032
0.125
0.18954
0.125
0.125001
0.125
0.125
0.176804
0.125
0.125
0.125
0.13078
0.125
0.172678
0.172015
0.125002
0.125
0.125
0.125041
0.125491
0.125
0.125
0.125211
0.125134
0.144849
0.12501
0.125
0.1272
0.125
0.125
0.125
0.125095
0.125
0.125
0.171012
0.125008
0.125
0.169886
0.125
0.135755
0.125062
0.125
0.162232
0.125
0.125923
0.170303
0.169788
0.125
0.172513
0.125
0.125116
0.125
0.125
0.172606
0.125
0.141615
0.125
0.125
0.126075
0.165629
0.177982
0.125
0.125
0.128131
0.125
0.17264
0.125002
0.125007
0.139564
0.125
0.125
0.125
0.125159
0.163759
0.180597
0.174815
0.125
0.172969
0.125
0.125
0.125
0.216375
0.125
0.125
0.217346
0.125
0.125
0.125
0.158142
0.183957
0.162636
0.125
0.125
0.125
0.125
0.125
0.175203
0.125
0.125931
0.17877
0.125
0.125
0.125
0.125
0.125
0.125
0.199999
0.137458
0.139437
0.12561
0.125003
0.125
0.12513
0.125
0.125004
0.266522
0.125
0.17442
0.125
0.125
0.125
0.14214
0.125123
0.125
0.150476
0.125565
0.188904
0.125
0.186292
0.173
0.139571
0.125
0.156328
0.125
0.173612
0.125023
0.125
0.125331
0.125
0.164402
0.125
0.174061
0.125
0.125047
0.131908
0.125
0.125
0.125
0.125
0.125
0.125055
0.125
0.169448
0.125
0.125085
0.125016
0.125
0.164144
0.268119
0.173418
0.189971
0.125
0.125
0.125002
0.125006
0.125
0.165011
0.128049
0.125
0.125
0.125006
0.125
0.129913
0.125
0.125
0.125
0.125
0.130605
0.125
0.125009
0.125
0.125
0.125
0.172927
0.125
0.125
0.13939
0.125
0.129536
0.137021
0.125023
0.125
0.268861
0.125
0.125
0.125
0.125
0.125269
0.145576
0.125
0.173201
0.125
0.125
0.126557
0.125
0.125
0.12509
0.125
0.125
0.125033
0.125001
0.125074
0.125
0.125
0.125
0.17165
0.153398
0.138674
0.125
0.12505
0.125
0.125
0.125
0.173826
0.125
0.125
0.125
0.125
0.125007
0.125
0.125167
0.192303
0.125
0.168935
0.125004
0.125
0.125016
0.173166
0.125008
0.125
0.125
0.125
0.125
0.125
0.125
0.173432
0.125
0.125
0.125
0.125927
0.169943
0.125
0.125
0.125008
0.125
0.125
0.125
0.125
0.125
0.125
0.173096
0.125
0.125
0.173335
0.182195
0.125
0.125
0.125
0.17325
0.125
0.125
0.125699
0.125
0.125002
0.268799
0.125
0.125
0.17246
0.125
0.125
0.125
0.126244
0.131139
0.182829
0.125
0.125
0.125
0.166437
0.125002
0.125407
0.125
0.153328
0.125
0.125
0.140282
0.125
0.125
0.125356
0.125
0.226791
0.125
0.125
0.125302
0.125
0.125
0.130915
0.125
0.125
0.125
0.17235
0.127789
0.125
0.135348
0.125
0.240693
0.125
0.125
0.125002
0.125032
0.125
0.125
0.199976
0.125003
0.167353
0.125003
0.165107
0.160383
0.16754
0.125002
0.125044
0.125148
0.125181
0.125
0.125
0.125
0.125
0.170936
0.125
0.125
0.16159
0.180234
0.125
0.165473
0.125
0.175013
0.12577
0.12515
0.185032
0.125
0.174453
0.207058
0.125
0.164788
0.125
0.125
0.133208
0.171281
0.125
0.125
0.125
0.125
0.185548
0.125
0.173019
0.16516
0.156381
0.185331
0.175297
0.215798
0.125
0.126393
0.132464
0.125
0.125737
0.242695
0.125455
0.125
0.152642
0.125
0.178471
0.125
0.125
0.125
0.125
0.125
0.186121
0.145522
0.125
0.125
0.139089
0.125
0.135453
0.125
0.125
0.175484
0.142782
0.125
0.125
0.125
0.173605
0.17448
0.174499
0.125001
0.125018
0.136652
0.125
0.125
0.150877
0.125
0.125
0.125
0.125002
0.125
0.125
0.125
0.173205
0.125
0.125
0.125
0.125
0.125009
0.125
0.125
0.125
0.125
0.125002
0.147788
0.125
0.173363
0.125
0.12501
0.125641
0.125007
0.17231
0.155176
0.147173
0.125
0.125335
0.147515
0.125545
0.125
0.125
0.125
0.125
0.163094
0.125001
0.125
0.16853
0.125
0.125
0.125
0.130277
0.15664
0.148824
0.180081
0.125004
0.125
0.173825
0.155221
0.125
0.125
0.137168
0.125
0.16844
0.176851
0.125
0.125
0.125209
0.125
0.176825
0.132891
0.167114
0.173323
0.16409
0.151803
0.175058
0.145177
0.173326
0.237898
0.125003
0.125
0.16617
0.125
0.159311
0.175805
0.18249
0.125
0.172821
0.177581
0.125
0.141943
0.125
0.125
0.125
0.17206
0.125
0.130115
0.125
0.125001
0.173086
0.187339
0.125001
0.125
0.125
0.172571
0.168359
0.125003
0.186132
0.125
0.125
0.125
0.125
0.182771
0.164586
0.125
0.206264
0.125
0.144896
0.125
0.173984
0.125
0.135082
0.177379
0.127684
0.144031
0.12997
0.125
0.125619
0.125006
0.125777
0.125
0.125
0.133227
0.173424
0.125001
0.125
0.125001
0.125
0.173504
0.125
0.125001
0.125
0.125
0.125
0.125
0.130359
0.175155
0.187722
0.135438
0.125032
0.1724
0.125062
0.125001
0.125
0.13029
0.125044
0.125
0.125
0.125
0.125
0.125
0.125
0.16045
0.126863
0.125
0.125
0.165326
0.125
0.125
0.164788
0.164809
0.175751
0.125155
0.164979
0.125796
0.153069
0.174438
0.193086
0.125
0.125
0.13557
0.125
0.125
0.171503
0.125085
0.125017
0.126243
0.125
0.125211
0.125
0.129538
0.125048
0.169886
0.151054
0.173757
0.130081
0.125
0.125
0.140104
0.172982
0.125
0.125
0.177214
0.125
0.17323
0.125158
0.171684
0.125005
0.125
0.184743
0.125
0.125036
0.125
0.125
0.125437
0.125051
0.125
0.125
0.125
0.125
0.125393
0.125001
0.130879
0.125
0.181296
0.125
0.173371
0.125
0.125002
0.125003
0.125
0.125
0.125
0.125
0.125
0.125
0.159877
0.125
0.159789
0.125002
0.173588
0.125
0.145358
0.125017
0.187215
0.162727
0.184316
0.125
0.125
0.125
0.125015
0.267695
0.125
0.173833
0.145535
0.125038
0.125
0.18557
0.125
0.162193
0.125113
0.125
0.12504
0.173187
0.168332
0.125003
0.133149
0.125001
0.242726
0.125
0.125
0.173234
0.125
0.125056
0.125
0.184533
0.174639
0.125
0.125015
0.125
0.125
0.189001
0.125
0.173471
0.125333
0.169819
0.259589
0.125
0.135365
0.125004
0.125
0.125
0.125
0.125
0.125
0.174218
0.17254
0.125
0.125
0.175692
0.125
0.125
0.125
0.125
0.125
0.125
0.171625
0.125
0.125107
0.125
0.125
0.17728
0.173818
0.125
0.125
0.151353
0.125
0.125
0.125
0.125
0.17343
0.125
0.125001
0.125
0.125
0.125
0.125
0.173464
0.125003
0.172932
0.12844
0.1736
0.126956
0.125197
0.262104
0.125
0.125
0.125622
0.125
0.155933
0.172751
0.125
0.170408
0.12502
0.173188
0.125
0.125
0.186492
0.125
0.125
0.18107
0.125215
0.125
0.171163
0.125
0.125
0.125
0.125
0.175307
0.125
0.125172
0.173304
0.177576
0.125
0.125
0.177474
0.125
0.125
0.2639
0.125
0.125233
0.125
0.125001
0.18949
0.125481
0.125
0.125001
0.258227
0.257973
0.142716
0.170302
0.145627
0.125
0.125
0.125018
0.125001
0.12815
0.125
0.125
0.125553
0.145884
0.189835
0.125
0.173843
0.125
0.125
0.129802
0.125
0.170872
0.125009
0.125
0.174582
0.125
0.125179
0.255804
0.125
0.125
0.125
0.169845
0.166484
0.125354
0.125
0.125
0.15921
0.125117
0.125
0.125
0.125
0.125
0.125298
0.125
0.125
0.131054
0.268913
0.135946
0.125
0.125001
0.125
0.240172
0.125
0.125
0.169534
0.125006
0.184775
0.125003
0.125
0.125003
0.125
0.188058
0.125
0.125
0.125298
0.125
0.125
0.125
0.171871
0.168347
0.18291
0.125
0.125
0.125
0.125
0.125
0.173764
0.125
0.125
0.1266
0.125
0.202009
0.12502
0.125
0.125
0.169389
0.127115
0.125
0.17434
0.173041
0.129625
0.17372
0.176106
0.125
0.172005
0.125
0.125
0.125154
0.127683
0.125
0.172534
0.154234
0.156923
0.125
0.125351
0.170665
0.178693
0.125